REMARK  7 active torsions:
REMARK  status: ('A' for Active; 'I' for Inactive)
REMARK    1  A    between atoms: N3_3  and  C20_13 
REMARK    2  A    between atoms: C4_4  and  C5_5 
REMARK    3  A    between atoms: C13_10  and  N2_31 
REMARK    4  A    between atoms: C17_12  and  C19_36 
REMARK    5  A    between atoms: C20_13  and  C16_34 
REMARK    6  A    between atoms: C2_25  and  C3_26 
REMARK    7  A    between atoms: C9_27  and  C12_29 
REMARK       I    between atoms: C12_29  and  N2_31 
ROOT
HETATM    1  C12 0LI A   1      15.826  -8.221  16.935  1.00 29.52     0.256 C 
HETATM    2  O1  0LI A   1      15.440  -7.217  16.328  1.00 32.52    -0.267 OA
HETATM    3  N2  0LI A   1      15.654  -8.415  18.256  1.00 29.90    -0.323 N 
ATOM      4  H2  0LI A   1      16.238  -9.134  18.682  1.00  0.00     0.169 HD
ENDROOT
BRANCH   1   5
HETATM    5  C9  0LI A   1      16.535  -9.316  16.196  1.00 29.36     0.033 A 
HETATM    6  C10 0LI A   1      16.642  -9.213  14.785  1.00 27.23     0.038 A 
HETATM    7  C5  0LI A   1      17.298 -10.203  14.015  1.00 26.45     0.025 A 
HETATM    8  C6  0LI A   1      17.881 -11.366  14.681  1.00 28.77    -0.043 A 
HETATM    9  C11 0LI A   1      18.601 -12.481  13.924  1.00 28.14     0.049 C 
HETATM   10  C7  0LI A   1      17.775 -11.477  16.113  1.00 28.94     0.009 A 
HETATM   11  C8  0LI A   1      17.106 -10.465  16.865  1.00 30.11     0.017 A 
BRANCH   7  12
HETATM   12  C4  0LI A   1      17.326  -9.986  12.572  1.00 24.91    -0.059 C 
HETATM   13  C3  0LI A   1      17.253  -9.818  11.367  1.00 23.74    -0.040 C 
BRANCH  13  14
HETATM   14  C2  0LI A   1      17.082  -9.665   9.981  1.00 23.00     0.127 A 
HETATM   15  N82 0LI A   1      17.835  -8.891   9.139  1.00 25.15    -0.231 N 
HETATM   16  N81 0LI A   1      18.916  -8.100   9.472  1.00 28.83    -0.303 N 
HETATM   17  C84 0LI A   1      17.257  -9.079   7.857  1.00 26.40     0.128 A 
HETATM   18  C83 0LI A   1      19.438  -7.459   8.416  1.00 28.11     0.108 A 
ATOM     19  H81 0LI A   1      19.279  -8.012  10.421  1.00  0.00     0.186 HD
HETATM   20  C82 0LI A   1      18.968  -7.546   7.073  1.00 26.65     0.022 A 
HETATM   21  C81 0LI A   1      17.881  -8.356   6.791  1.00 28.42     0.052 A 
HETATM   22  N1  0LI A   1      16.231  -9.909   7.915  1.00 27.29    -0.348 N 
HETATM   23  C1  0LI A   1      16.120 -10.272   9.243  1.00 23.61     0.130 A 
ATOM     24  H1  0LI A   1      15.643 -10.218   7.141  1.00  0.00     0.167 HD
ENDBRANCH  13  14
ENDBRANCH   7  12
ENDBRANCH   1   5
BRANCH   3  25
HETATM   25  C13 0LI A   1      14.760  -7.742  19.128  1.00 31.24     0.035 A 
HETATM   26  C18 0LI A   1      13.581  -7.051  18.671  1.00 32.72     0.046 A 
HETATM   27  C17 0LI A   1      12.695  -6.377  19.566  1.00 32.08     0.058 A 
HETATM   28  C16 0LI A   1      13.008  -6.398  21.001  1.00 31.70    -0.015 A 
HETATM   29  C15 0LI A   1      14.197  -7.099  21.442  1.00 32.88     0.012 A 
HETATM   30  C14 0LI A   1      15.060  -7.760  20.512  1.00 32.94     0.030 A 
BRANCH  27  31
HETATM   31  C19 0LI A   1      11.465  -5.667  18.956  1.00 33.23     0.418 C 
HETATM   32  F3  0LI A   1      10.347  -6.003  19.605  1.00 36.12    -0.166 F 
HETATM   33  F2  0LI A   1      11.279  -5.972  17.674  1.00 31.99    -0.166 F 
HETATM   34  F1  0LI A   1      11.632  -4.358  19.013  1.00 33.40    -0.166 F 
ENDBRANCH  27  31
BRANCH  28  35
HETATM   35  C20 0LI A   1      12.143  -5.711  22.085  1.00 29.95     0.311 C 
BRANCH  35  36
HETATM   36  N3  0LI A   1      12.900  -5.127  23.200  1.00 31.16     0.096 N 
HETATM   37  C21 0LI A   1      13.814  -4.023  22.778  1.00 32.15     0.303 C 
HETATM   38  C22 0LI A   1      14.690  -3.566  23.966  1.00 31.08     0.302 C 
HETATM   39  N4  0LI A   1      13.831  -3.038  25.045  1.00 32.74     0.087 N 
HETATM   40  C23 0LI A   1      12.839  -4.070  25.479  1.00 30.79     0.302 C 
HETATM   41  C25 0LI A   1      14.619  -2.508  26.149  1.00 30.23     0.310 C 
HETATM   42  C24 0LI A   1      12.019  -4.643  24.281  1.00 28.48     0.303 C 
ENDBRANCH  35  36
ENDBRANCH  28  35
ENDBRANCH   3  25
TORSDOF 7
