REMARK  5 active torsions:
REMARK  status: ('A' for Active; 'I' for Inactive)
REMARK       I    between atoms: C80_2  and  N82_3 
REMARK    1  A    between atoms: C80_2  and  C23_6 
REMARK    2  A    between atoms: C18_10  and  S24_12 
REMARK    3  A    between atoms: S24_12  and  C07_13 
REMARK    4  A    between atoms: C13_22  and  C16_24 
REMARK    5  A    between atoms: C17_25  and  C02_26 
ROOT
HETATM    1  C07 AXI A2000     -22.959  -0.270 -11.905  1.00 29.58     0.007 A 
HETATM    2  C08 AXI A2000     -21.591  -0.542 -12.267  1.00 28.73     0.020 A 
HETATM    3  C09 AXI A2000     -20.775   0.457 -12.895  1.00 27.95     0.017 A 
HETATM    4  C12 AXI A2000     -23.512   1.033 -12.184  1.00 29.90     0.050 A 
HETATM    5  C11 AXI A2000     -22.684   2.004 -12.808  1.00 29.99     0.061 A 
HETATM    6  N15 AXI A2000     -22.918   3.313 -13.193  1.00 30.45    -0.299 N 
ATOM      7  H15 AXI A2000     -23.807   3.797 -13.067  1.00  0.00     0.187 HD
HETATM    8  N14 AXI A2000     -21.872   3.847 -13.731  1.00 30.84    -0.299 N 
ATOM      9  H14 AXI A2000     -21.826   4.802 -14.085  1.00  0.00     0.187 HD
HETATM   10  C13 AXI A2000     -20.895   3.007 -13.759  1.00 30.52     0.060 A 
HETATM   11  C10 AXI A2000     -21.364   1.741 -13.156  1.00 28.77     0.020 A 
ENDROOT
BRANCH   1  12
HETATM   12  S24 AXI A2000     -23.902  -1.516 -11.133  1.00 30.16    -0.089 SA
BRANCH  12  13
HETATM   13  C18 AXI A2000     -25.398  -1.648 -12.044  1.00 27.61     0.021 A 
HETATM   14  C19 AXI A2000     -25.362  -1.478 -13.474  1.00 29.30     0.020 A 
HETATM   15  C20 AXI A2000     -26.539  -1.573 -14.263  1.00 30.08     0.001 A 
HETATM   16  C21 AXI A2000     -27.785  -1.845 -13.635  1.00 25.89     0.001 A 
HETATM   17  C22 AXI A2000     -27.843  -2.016 -12.228  1.00 28.52     0.018 A 
HETATM   18  C23 AXI A2000     -26.661  -1.921 -11.407  1.00 27.52     0.049 A 
BRANCH  18  19
HETATM   19  C80 AXI A2000     -26.813  -2.112  -9.925  1.00 30.83     0.252 C 
HETATM   20  N82 AXI A2000     -27.794  -2.903  -9.473  1.00 32.30    -0.361 N 
HETATM   21  C88 AXI A2000     -28.062  -3.167  -8.066  1.00 34.30     0.149 C 
ATOM     22  H82 AXI A2000     -28.396  -3.352 -10.163  1.00  0.00     0.162 HD
HETATM   23  O81 AXI A2000     -26.050  -1.540  -9.129  1.00 32.47    -0.268 OA
ENDBRANCH  18  19
ENDBRANCH  12  13
ENDBRANCH   1  12
BRANCH  10  24
HETATM   24  C16 AXI A2000     -19.565   3.359 -14.326  1.00 31.23     0.034 C 
HETATM   25  C17 AXI A2000     -18.334   2.766 -13.999  1.00 32.22     0.032 C 
BRANCH  25  26
HETATM   26  C02 AXI A2000     -17.005   3.150 -14.572  1.00 36.06     0.031 A 
HETATM   27  N03 AXI A2000     -16.098   2.140 -14.754  1.00 36.39    -0.366 N 
HETATM   28  C04 AXI A2000     -14.863   2.437 -15.268  1.00 36.38     0.088 A 
ATOM     29  H03 AXI A2000     -16.339   1.179 -14.510  1.00  0.00     0.165 HD
HETATM   30  C05 AXI A2000     -14.473   3.760 -15.624  1.00 37.01     0.017 A 
HETATM   31  C06 AXI A2000     -15.411   4.817 -15.437  1.00 37.30     0.004 A 
HETATM   32  C01 AXI A2000     -16.698   4.518 -14.905  1.00 35.47     0.029 A 
ENDBRANCH  25  26
ENDBRANCH  10  24
TORSDOF 5
