REMARK  6 active torsions:
REMARK  status: ('A' for Active; 'I' for Inactive)
REMARK    1  A    between atoms: C2_2  and  N12_27 
REMARK       I    between atoms: C13_5  and  N12_27 
REMARK       I    between atoms: C13_5  and  N14_29 
REMARK    2  A    between atoms: C16_6  and  N14_29 
REMARK    3  A    between atoms: C19_9  and  O22_12 
REMARK    4  A    between atoms: O22_12  and  C23_32 
REMARK    5  A    between atoms: C27_15  and  C29_35 
REMARK       I    between atoms: N30_17  and  C29_35 
REMARK    6  A    between atoms: C6_21  and  C7_22 
ROOT
HETATM    1  C16 BAX A1500     -25.341  -1.759 -12.256  1.00 17.92     0.036 A 
HETATM    2  C17 BAX A1500     -25.465  -1.340 -13.576  1.00 18.37     0.032 A 
HETATM    3  C18 BAX A1500     -24.343  -0.872 -14.261  1.00 17.59     0.039 A 
HETATM    4  C19 BAX A1500     -23.112  -0.822 -13.604  1.00 17.51     0.076 A 
HETATM    5  C20 BAX A1500     -22.959  -1.234 -12.287  1.00 17.09     0.039 A 
HETATM    6  C21 BAX A1500     -24.084  -1.701 -11.617  1.00 17.49     0.032 A 
ENDROOT
BRANCH   1   7
HETATM    7  N14 BAX A1500     -26.506  -2.223 -11.611  1.00 17.75    -0.309 N 
HETATM    8  C13 BAX A1500     -26.747  -2.075 -10.251  1.00 18.42     0.325 C 
HETATM    9  N12 BAX A1500     -27.828  -2.830  -9.815  1.00 24.48    -0.309 N 
HETATM   10  O15 BAX A1500     -26.069  -1.375  -9.521  1.00 16.61    -0.247 OA
ATOM     11  H12 BAX A1500     -28.319  -3.404 -10.500  1.00  0.00     0.170 HD
ATOM     12  H14 BAX A1500     -27.213  -2.695 -12.176  1.00  0.00     0.170 HD
BRANCH   9  13
HETATM   13  C2  BAX A1500     -28.285  -2.851  -8.488  1.00 26.81     0.037 A 
HETATM   14  C1  BAX A1500     -28.055  -1.789  -7.594  1.00 28.05     0.046 A 
HETATM   15  C6  BAX A1500     -28.518  -1.838  -6.274  1.00 27.86     0.056 A 
HETATM   16  C5  BAX A1500     -29.237  -2.975  -5.867  1.00 28.97    -0.047 A 
HETATM   17  C4  BAX A1500     -29.467  -4.049  -6.742  1.00 28.39     0.010 A 
HETATM   18  CL1 BAX A1500     -29.841  -3.103  -4.255  1.00 33.58     0.049 C 
HETATM   19  C3  BAX A1500     -28.991  -3.977  -8.056  1.00 27.67     0.030 A 
BRANCH  15  20
HETATM   20  C7  BAX A1500     -28.240  -0.676  -5.351  1.00 28.43     0.418 C 
HETATM   21  F10 BAX A1500     -27.559   0.341  -5.933  1.00 28.66    -0.166 F 
HETATM   22  F9  BAX A1500     -29.358  -0.102  -4.830  1.00 29.59    -0.166 F 
HETATM   23  F8  BAX A1500     -27.463  -1.049  -4.310  1.00 28.88    -0.166 F 
ENDBRANCH  15  20
ENDBRANCH   9  13
ENDBRANCH   1   7
BRANCH   4  24
HETATM   24  O22 BAX A1500     -22.013  -0.372 -14.299  1.00 19.12    -0.311 OA
BRANCH  24  25
HETATM   25  C23 BAX A1500     -21.706   0.972 -14.335  1.00 17.83     0.079 A 
HETATM   26  C28 BAX A1500     -20.398   1.184 -14.778  1.00 18.82     0.072 A 
HETATM   27  C27 BAX A1500     -19.937   2.495 -14.861  1.00 19.28     0.103 A 
HETATM   28  N26 BAX A1500     -20.726   3.561 -14.550  1.00 17.76    -0.361 N 
HETATM   29  C25 BAX A1500     -21.992   3.328 -14.116  1.00 17.34     0.091 A 
ATOM     30  H26 BAX A1500     -20.374   4.514 -14.641  1.00  0.00     0.165 HD
HETATM   31  C24 BAX A1500     -22.543   2.048 -13.990  1.00 16.97     0.054 A 
BRANCH  27  32
HETATM   32  C29 BAX A1500     -18.534   2.702 -15.341  1.00 20.37     0.267 C 
HETATM   33  N30 BAX A1500     -18.033   3.988 -15.404  1.00 22.70    -0.360 N 
HETATM   34  C31 BAX A1500     -16.677   4.242 -15.873  1.00 21.49     0.149 C 
ATOM     35  H30 BAX A1500     -18.621   4.771 -15.118  1.00  0.00     0.162 HD
HETATM   36  O32 BAX A1500     -17.877   1.720 -15.690  1.00 23.09    -0.266 OA
ENDBRANCH  27  32
ENDBRANCH  24  25
ENDBRANCH   4  24
TORSDOF 6
