REMARK  6 active torsions:
REMARK  status: ('A' for Active; 'I' for Inactive)
REMARK    1  A    between atoms: C3_3  and  O1_28 
REMARK    2  A    between atoms: C17_17  and  C20_20 
REMARK    3  A    between atoms: C20_20  and  C22_22 
REMARK    4  A    between atoms: C22_22  and  C23_23 
REMARK    5  A    between atoms: C23_23  and  C24_24 
REMARK    6  A    between atoms: C24_24  and  C25_25 
ROOT
HETATM    1  C1  CLR A1203     -34.388  -3.374 103.675  1.00 77.39     0.016 C 
HETATM    2  C2  CLR A1203     -34.048  -4.221 104.911  1.00 76.36     0.033 C 
HETATM    3  C3  CLR A1203     -34.461  -5.697 104.804  1.00 76.82     0.122 C 
HETATM    4  C4  CLR A1203     -34.010  -6.353 103.491  1.00 78.16     0.066 C 
HETATM    5  C5  CLR A1203     -34.211  -5.455 102.275  1.00 80.06    -0.072 C 
HETATM    6  C6  CLR A1203     -34.654  -6.069 101.148  1.00 81.40    -0.023 C 
HETATM    7  C7  CLR A1203     -34.947  -5.361  99.831  1.00 82.45     0.033 C 
HETATM    8  C8  CLR A1203     -34.339  -3.954  99.803  1.00 82.97    -0.001 C 
HETATM    9  C9  CLR A1203     -34.624  -3.240 101.153  1.00 82.14     0.003 C 
HETATM   10  C10 CLR A1203     -33.897  -3.944 102.328  1.00 80.10    -0.017 C 
HETATM   11  C11 CLR A1203     -34.332  -1.716 101.126  1.00 83.08     0.007 C 
HETATM   12  C12 CLR A1203     -34.575  -0.978  99.797  1.00 84.18     0.010 C 
HETATM   13  C13 CLR A1203     -34.102  -1.710  98.527  1.00 84.47    -0.036 C 
HETATM   14  C14 CLR A1203     -34.768  -3.091  98.602  1.00 84.16    -0.001 C 
HETATM   15  C15 CLR A1203     -34.636  -3.667  97.191  1.00 84.88     0.006 C 
HETATM   16  C16 CLR A1203     -34.737  -2.432  96.295  1.00 84.84     0.006 C 
HETATM   17  C17 CLR A1203     -34.753  -1.197  97.216  1.00 85.32    -0.002 C 
HETATM   18  C18 CLR A1203     -32.551  -1.738  98.465  1.00 84.25     0.016 C 
HETATM   19  C19 CLR A1203     -32.371  -3.752 102.224  1.00 80.07     0.020 C 
ENDROOT
BRANCH  17  20
HETATM   20  C20 CLR A1203     -34.244   0.109  96.545  1.00 86.90    -0.014 C 
HETATM   21  C21 CLR A1203     -34.208   1.362  97.431  1.00 87.51     0.010 C 
BRANCH  20  22
HETATM   22  C22 CLR A1203     -35.142   0.468  95.363  1.00 87.04     0.005 C 
BRANCH  22  23
HETATM   23  C23 CLR A1203     -34.365   0.700  94.072  1.00 86.36     0.001 C 
BRANCH  23  24
HETATM   24  C24 CLR A1203     -35.349   0.869  92.919  1.00 86.36     0.004 C 
BRANCH  24  25
HETATM   25  C25 CLR A1203     -35.454   2.328  92.493  1.00 86.77    -0.023 C 
HETATM   26  C26 CLR A1203     -35.379   2.485  90.982  1.00 88.46     0.009 C 
HETATM   27  C27 CLR A1203     -36.664   3.042  93.079  1.00 85.41     0.009 C 
ENDBRANCH  24  25
ENDBRANCH  23  24
ENDBRANCH  22  23
ENDBRANCH  20  22
ENDBRANCH  17  20
BRANCH   3  28
HETATM   28  O1  CLR A1203     -33.904  -6.425 105.909  1.00 75.83    -0.395 OA
ATOM     29  H1  CLR A1203     -34.159  -7.338 105.843  1.00  0.00     0.210 HD
ENDBRANCH   3  28
TORSDOF 6
