REMARK  5 active torsions:
REMARK  status: ('A' for Active; 'I' for Inactive)
REMARK    1  A    between atoms: C2_2  and  N2_9 
REMARK    2  A    between atoms: C3_3  and  O3_11 
REMARK    3  A    between atoms: C4_4  and  O4_13 
REMARK    4  A    between atoms: C5_5  and  C6_6 
REMARK    5  A    between atoms: C6_6  and  O6_16 
REMARK       I    between atoms: C7_7  and  N2_9 
ROOT
HETATM    1  C1  NAG A1201     -51.939  15.709 102.910  1.00149.67     0.196 C 
HETATM    2  C2  NAG A1201     -52.443  15.896 101.475  1.00150.82     0.139 C 
HETATM    3  C3  NAG A1201     -53.328  17.144 101.433  1.00152.76     0.174 C 
HETATM    4  C4  NAG A1201     -54.443  17.061 102.474  1.00152.59     0.180 C 
HETATM    5  C5  NAG A1201     -53.854  16.828 103.867  1.00152.77     0.176 C 
HETATM    6  O5  NAG A1201     -53.021  15.651 103.850  1.00151.56    -0.379 OA
ENDROOT
BRANCH   2   7
HETATM    7  N2  NAG A1201     -51.362  16.002 100.505  1.00149.30    -0.352 N 
HETATM    8  C7  NAG A1201     -51.316  15.307  99.355  1.00148.45     0.214 C 
HETATM    9  O7  NAG A1201     -52.151  14.452  99.071  1.00148.36    -0.274 OA
HETATM   10  C8  NAG A1201     -50.180  15.639  98.433  1.00148.21     0.117 C 
ATOM     11  H2  NAG A1201     -50.594  16.641 100.710  1.00  0.00     0.163 HD
ENDBRANCH   2   7
BRANCH   3  12
HETATM   12  O3  NAG A1201     -53.891  17.285 100.132  1.00153.97    -0.391 OA
ATOM     13  H3  NAG A1201     -54.440  18.060 100.106  1.00  0.00     0.210 HD
ENDBRANCH   3  12
BRANCH   4  14
HETATM   14  O4  NAG A1201     -55.215  18.259 102.453  1.00151.98    -0.390 OA
ATOM     15  H4  NAG A1201     -55.908  18.207 103.100  1.00  0.00     0.210 HD
ENDBRANCH   4  14
BRANCH   5  16
HETATM   16  C6  NAG A1201     -54.903  16.614 104.939  1.00153.49     0.198 C 
BRANCH  16  17
HETATM   17  O6  NAG A1201     -54.323  16.295 106.199  1.00153.97    -0.398 OA
ATOM     18  H6  NAG A1201     -54.981  16.161 106.871  1.00  0.00     0.209 HD
ENDBRANCH  16  17
ENDBRANCH   5  16
TORSDOF 5
