REMARK  3 active torsions:
REMARK  status: ('A' for Active; 'I' for Inactive)
REMARK    1  A    between atoms: C1_1  and  O1_2 
REMARK    2  A    between atoms: C1_1  and  C2_4 
REMARK    3  A    between atoms: C2_4  and  O2_5 
ROOT
HETATM    1  C1  EDO A1209      10.881 -11.626  29.018  1.00 56.81     0.190 C 
ENDROOT
BRANCH   1   2
HETATM    2  O1  EDO A1209      11.937 -11.622  29.983  1.00 59.76    -0.399 OA
ATOM      3  H1  EDO A1209      11.737 -12.183  30.723  1.00  0.00     0.209 HD
ENDBRANCH   1   2
BRANCH   1   4
HETATM    4  C2  EDO A1209      11.203 -10.721  27.824  1.00 44.44     0.190 C 
BRANCH   4   5
HETATM    5  O2  EDO A1209      11.705 -11.392  26.647  1.00 31.28    -0.399 OA
ATOM      6  H2  EDO A1209      11.905 -10.831  25.907  1.00  0.00     0.209 HD
ENDBRANCH   4   5
ENDBRANCH   1   4
TORSDOF 3
