REMARK  6 active torsions:
REMARK  status: ('A' for Active; 'I' for Inactive)
REMARK    1  A    between atoms: C1_1  and  C9_22 
REMARK    2  A    between atoms: C16_6  and  C10_23 
REMARK    3  A    between atoms: C20_9  and  N27_31 
REMARK    4  A    between atoms: C22_10  and  N14_25 
REMARK    5  A    between atoms: C25_13  and  C26_14 
REMARK    6  A    between atoms: C26_14  and  N27_31 
ROOT
HETATM    1  N27 7J2 D 501      40.361   6.242 -53.318  1.00 40.82    -0.215 N 
ATOM      2  H27 7J2 D 501      39.582   6.426 -53.951  1.00  0.00     0.178 HD
ENDROOT
BRANCH   1   3
HETATM    3  C20 7J2 D 501      40.579   4.975 -52.879  1.00 39.29     0.680 A 
HETATM    4  N19 7J2 D 501      39.574   4.099 -52.727  1.00 37.32    -0.202 N 
HETATM    5  C24 7J2 D 501      39.801   2.851 -52.256  1.00 40.79     0.110 A 
ATOM      6  H19 7J2 D 501      38.624   4.378 -52.970  1.00  0.00     0.183 HD
HETATM    7  C23 7J2 D 501      41.111   2.464 -51.915  1.00 43.00     0.067 A 
HETATM    8  C22 7J2 D 501      42.160   3.404 -52.026  1.00 44.62     0.129 A 
HETATM    9  N21 7J2 D 501      41.840   4.622 -52.520  1.00 43.58    -0.176 N 
ATOM     10  H21 7J2 D 501      42.584   5.311 -52.628  1.00  0.00     0.186 HD
BRANCH   8  11
HETATM   11  N14 7J2 D 501      43.547   3.125 -51.738  1.00 44.92    -0.271 N 
HETATM   12  C10 7J2 D 501      44.643   3.925 -52.288  1.00 46.13     0.124 C 
HETATM   13  C11 7J2 D 501      45.749   2.845 -52.126  1.00 48.76     0.206 C 
HETATM   14  O12 7J2 D 501      45.328   2.084 -50.982  1.00 49.26    -0.302 OA
HETATM   15  C13 7J2 D 501      43.989   2.079 -50.987  1.00 46.69     0.369 C 
HETATM   16  O15 7J2 D 501      43.361   1.258 -50.353  1.00 47.33    -0.238 OA
BRANCH  12  17
HETATM   17  C16 7J2 D 501      44.860   5.280 -51.514  1.00 48.75     0.003 C 
HETATM   18  C18 7J2 D 501      46.116   6.072 -51.954  1.00 47.47     0.011 C 
HETATM   19  C17 7J2 D 501      44.797   5.243 -49.954  1.00 51.82     0.011 C 
ENDBRANCH  12  17
ENDBRANCH   8  11
ENDBRANCH   1   3
BRANCH   1  20
HETATM   20  C26 7J2 D 501      41.230   7.354 -52.896  1.00 42.76     0.163 C 
HETATM   21  C28 7J2 D 501      40.781   8.671 -53.575  1.00 40.63     0.041 C 
BRANCH  20  22
HETATM   22  C25 7J2 D 501      41.336   7.467 -51.350  1.00 43.91     0.104 A 
HETATM   23  N32 7J2 D 501      40.486   6.773 -50.547  1.00 39.18    -0.353 N 
HETATM   24  C31 7J2 D 501      40.593   6.818 -49.206  1.00 44.15     0.103 A 
ATOM     25  H32 7J2 D 501      39.751   6.206 -50.970  1.00  0.00     0.166 HD
HETATM   26  C9  7J2 D 501      41.585   7.613 -48.596  1.00 47.97     0.005 A 
HETATM   27  C30 7J2 D 501      42.462   8.317 -49.446  1.00 48.21     0.103 A 
HETATM   28  N29 7J2 D 501      42.328   8.213 -50.793  1.00 48.23    -0.353 N 
ATOM     29  H29 7J2 D 501      42.984   8.704 -51.400  1.00  0.00     0.166 HD
BRANCH  26  30
HETATM   30  C1  7J2 D 501      41.698   7.680 -47.106  1.00 49.71    -0.023 A 
HETATM   31  C2  7J2 D 501      42.954   7.549 -46.473  1.00 52.27     0.015 A 
HETATM   32  C3  7J2 D 501      43.046   7.587 -45.068  1.00 55.68     0.044 A 
HETATM   33  C4  7J2 D 501      41.886   7.754 -44.288  1.00 58.62     0.122 A 
HETATM   34  F7  7J2 D 501      42.013   7.775 -42.960  1.00 61.97    -0.206 F 
HETATM   35  C5  7J2 D 501      40.615   7.888 -44.914  1.00 55.47    -0.023 A 
HETATM   36  C8  7J2 D 501      39.322   8.060 -44.105  1.00 53.22     0.051 C 
HETATM   37  C6  7J2 D 501      40.539   7.845 -46.322  1.00 51.35     0.022 A 
ENDBRANCH  26  30
ENDBRANCH  20  22
ENDBRANCH   1  20
TORSDOF 6
