REMARK  6 active torsions:
REMARK  status: ('A' for Active; 'I' for Inactive)
REMARK    1  A    between atoms: CAC_1  and  CA_2 
REMARK    2  A    between atoms: CA_2  and  CB_3 
REMARK    3  A    between atoms: CB_3  and  CBC_4 
REMARK    4  A    between atoms: CB_3  and  CG_5 
REMARK    5  A    between atoms: CB_3  and  OHB_13 
REMARK    6  A    between atoms: CG_5  and  CGC_6 
ROOT
HETATM    1  CB  FLC B 502      35.632  16.483 -26.717  1.00 85.59     0.164 C 
ENDROOT
BRANCH   1   2
HETATM    2  CBC FLC B 502      35.290  17.382 -25.539  1.00 84.13     0.210 C 
HETATM    3  OB1 FLC B 502      34.780  18.498 -25.779  1.00 86.09    -0.646 OA
HETATM    4  OB2 FLC B 502      35.529  17.003 -24.371  1.00 80.92    -0.646 OA
ENDBRANCH   1   2
BRANCH   1   5
HETATM    5  CG  FLC B 502      34.536  15.426 -26.863  1.00 86.79     0.163 C 
BRANCH   5   6
HETATM    6  CGC FLC B 502      33.150  15.968 -27.160  1.00 88.47     0.176 C 
HETATM    7  OG2 FLC B 502      32.178  15.416 -26.595  1.00 88.43    -0.648 OA
HETATM    8  OG1 FLC B 502      33.008  16.921 -27.965  1.00 89.91    -0.648 OA
ENDBRANCH   5   6
ENDBRANCH   1   5
BRANCH   1   9
HETATM    9  OHB FLC B 502      35.707  17.231 -27.943  1.00 86.26    -0.378 OA
ATOM     10  HHB FLC B 502      35.921  16.669 -28.679  1.00  0.00     0.211 HD
ENDBRANCH   1   9
BRANCH   1  11
HETATM   11  CA  FLC B 502      36.976  15.768 -26.545  1.00 85.13     0.163 C 
BRANCH  11  12
HETATM   12  CAC FLC B 502      38.178  16.581 -26.092  1.00 85.29     0.176 C 
HETATM   13  OA1 FLC B 502      38.118  17.826 -25.934  1.00 85.56    -0.648 OA
HETATM   14  OA2 FLC B 502      39.237  15.946 -25.887  1.00 85.12    -0.648 OA
ENDBRANCH  11  12
ENDBRANCH   1  11
TORSDOF 6
