REMARK  17 active torsions:
REMARK  status: ('A' for Active; 'I' for Inactive)
REMARK    1  A    between atoms: PA_1  and  O5B_4 
REMARK    2  A    between atoms: PA_1  and  O3_29 
REMARK    3  A    between atoms: O5B_4  and  C5B_5 
REMARK    4  A    between atoms: C5B_5  and  C4B_6 
REMARK    5  A    between atoms: C3B_8  and  O3B_9 
REMARK    6  A    between atoms: C2B_11  and  O2B_12 
REMARK    7  A    between atoms: O2B_12  and  P2B_55 
REMARK    8  A    between atoms: C1B_13  and  N9A_14 
REMARK    9  A    between atoms: C6A_19  and  N6A_20 
REMARK   10  A    between atoms: O3_29  and  PN_30 
REMARK   11  A    between atoms: PN_30  and  O5D_33 
REMARK   12  A    between atoms: O5D_33  and  C5D_34 
REMARK   13  A    between atoms: C5D_34  and  C4D_35 
REMARK   14  A    between atoms: C3D_37  and  O3D_38 
REMARK   15  A    between atoms: C2D_40  and  O2D_41 
REMARK   16  A    between atoms: C1D_43  and  N1N_44 
REMARK   17  A    between atoms: C3N_46  and  C7N_47 
REMARK       I    between atoms: C7N_47  and  N7N_49 
ROOT
HETATM    1  PA  NDP C 503      32.135  32.036  52.279  1.00 58.35     0.417 P 
HETATM    2  O1A NDP C 503      32.274  32.410  53.730  1.00 57.91    -0.624 OA
HETATM    3  O2A NDP C 503      31.920  30.594  51.871  1.00 61.85    -0.624 OA
ENDROOT
BRANCH   1   4
HETATM    4  O5B NDP C 503      30.913  32.903  51.704  1.00 55.88    -0.287 OA
BRANCH   4   5
HETATM    5  C5B NDP C 503      30.664  32.974  50.301  1.00 55.33     0.216 C 
BRANCH   5   6
HETATM    6  C4B NDP C 503      29.191  33.247  50.054  1.00 54.93     0.180 C 
HETATM    7  O4B NDP C 503      28.485  32.016  49.841  1.00 54.59    -0.353 OA
HETATM    8  C1B NDP C 503      27.256  31.995  50.595  1.00 56.66     0.263 C 
HETATM    9  C2B NDP C 503      27.045  33.435  51.064  1.00 57.42     0.216 C 
HETATM   10  C3B NDP C 503      28.491  33.867  51.254  1.00 56.59     0.183 C 
BRANCH   8  11
HETATM   11  N9A NDP C 503      27.321  31.064  51.778  1.00 57.06    -0.297 N 
HETATM   12  C4A NDP C 503      26.311  30.799  52.630  1.00 57.92     0.142 A 
HETATM   13  N3A NDP C 503      25.009  31.233  52.712  1.00 59.94    -0.336 N 
HETATM   14  C5A NDP C 503      26.789  29.904  53.584  1.00 57.35     0.122 A 
HETATM   15  C2A NDP C 503      24.190  30.816  53.699  1.00 59.50     0.183 A 
ATOM     16  H3A NDP C 503      24.655  31.884  52.011  1.00  0.00     0.168 HD
HETATM   17  N1A NDP C 503      24.639  29.938  54.620  1.00 58.79    -0.337 N 
HETATM   18  C6A NDP C 503      25.911  29.458  54.576  1.00 57.08     0.131 A 
ATOM     19  H1A NDP C 503      24.013  29.628  55.363  1.00  0.00     0.168 HD
HETATM   20  N7A NDP C 503      28.072  29.623  53.271  1.00 56.55    -0.346 N 
HETATM   21  C8A NDP C 503      28.390  30.346  52.175  1.00 56.57     0.188 A 
ATOM     22  H7A NDP C 503      28.688  28.982  53.771  1.00  0.00     0.167 HD
BRANCH  18  23
HETATM   23  N6A NDP C 503      26.331  28.582  55.515  1.00 56.00    -0.383 N 
ATOM     24 2H6A NDP C 503      25.690  28.257  56.239  1.00  0.00     0.157 HD
ATOM     25 1H6A NDP C 503      27.285  28.222  55.482  1.00  0.00     0.157 HD
ENDBRANCH  18  23
ENDBRANCH   8  11
BRANCH   9  26
HETATM   26  O2B NDP C 503      26.410  34.119  49.975  1.00 58.67    -0.270 OA
BRANCH  26  27
HETATM   27  P2B NDP C 503      25.593  35.509  50.101  1.00 61.52     0.422 P 
HETATM   28  O1X NDP C 503      24.934  35.612  48.745  1.00 62.16    -0.617 OA
HETATM   29  O2X NDP C 503      26.672  36.537  50.367  1.00 62.91    -0.617 OA
HETATM   30  O3X NDP C 503      24.622  35.346  51.238  1.00 62.15    -0.617 OA
ENDBRANCH  26  27
ENDBRANCH   9  26
BRANCH  10  31
HETATM   31  O3B NDP C 503      28.728  35.264  51.448  1.00 57.98    -0.390 OA
ATOM     32  H3B NDP C 503      28.291  35.651  52.197  1.00  0.00     0.210 HD
ENDBRANCH  10  31
ENDBRANCH   5   6
ENDBRANCH   4   5
ENDBRANCH   1   4
BRANCH   1  33
HETATM   33  O3  NDP C 503      33.432  32.594  51.465  1.00 62.32    -0.180 OA
BRANCH  33  34
HETATM   34  PN  NDP C 503      33.976  34.131  51.472  1.00 61.41     0.417 P 
HETATM   35  O1N NDP C 503      34.666  34.316  50.145  1.00 64.48    -0.624 OA
HETATM   36  O2N NDP C 503      32.889  35.110  51.867  1.00 60.97    -0.624 OA
BRANCH  34  37
HETATM   37  O5D NDP C 503      35.079  34.066  52.643  1.00 63.03    -0.287 OA
BRANCH  37  38
HETATM   38  C5D NDP C 503      34.914  34.701  53.911  1.00 63.60     0.216 C 
BRANCH  38  39
HETATM   39  C4D NDP C 503      36.068  34.289  54.825  1.00 66.61     0.180 C 
HETATM   40  O4D NDP C 503      36.045  32.875  55.044  1.00 66.76    -0.353 OA
HETATM   41  C1D NDP C 503      37.348  32.339  54.838  1.00 67.08     0.259 C 
HETATM   42  C2D NDP C 503      38.124  33.335  53.988  1.00 68.52     0.198 C 
HETATM   43  C3D NDP C 503      37.468  34.667  54.327  1.00 66.97     0.182 C 
BRANCH  41  44
HETATM   44  N1N NDP C 503      37.285  30.985  54.286  1.00 66.83    -0.336 N 
HETATM   45  C6N NDP C 503      36.920  30.720  53.009  1.00 66.54     0.093 A 
HETATM   46  C5N NDP C 503      36.852  29.393  52.566  1.00 68.96     0.018 A 
HETATM   47  C4N NDP C 503      37.170  28.350  53.453  1.00 70.80     0.020 A 
HETATM   48  C3N NDP C 503      37.538  28.658  54.776  1.00 71.16     0.047 A 
HETATM   49  C2N NDP C 503      37.578  29.998  55.152  1.00 68.55     0.110 A 
BRANCH  48  50
HETATM   50  C7N NDP C 503      37.871  27.598  55.798  1.00 73.54     0.250 C 
HETATM   51  O7N NDP C 503      38.208  27.931  56.928  1.00 73.66    -0.268 OA
HETATM   52  N7N NDP C 503      37.780  26.308  55.468  1.00 74.89    -0.366 N 
ATOM     53 2H7N NDP C 503      38.005  25.592  56.159  1.00  0.00     0.159 HD
ATOM     54 1H7N NDP C 503      37.499  26.031  54.527  1.00  0.00     0.159 HD
ENDBRANCH  48  50
ENDBRANCH  41  44
BRANCH  42  55
HETATM   55  O2D NDP C 503      39.520  33.271  54.312  1.00 70.13    -0.388 OA
ATOM     56  H2D NDP C 503      39.929  32.440  54.101  1.00  0.00     0.210 HD
ENDBRANCH  42  55
BRANCH  43  57
HETATM   57  O3D NDP C 503      38.168  35.305  55.404  1.00 66.71    -0.390 OA
ATOM     58  H3D NDP C 503      39.035  35.539  55.095  1.00  0.00     0.210 HD
ENDBRANCH  43  57
ENDBRANCH  38  39
ENDBRANCH  37  38
ENDBRANCH  34  37
ENDBRANCH  33  34
ENDBRANCH   1  33
TORSDOF 17
