REMARK  16 active torsions:
REMARK  status: ('A' for Active; 'I' for Inactive)
REMARK    1  A    between atoms: PA_1  and  O5B_4 
REMARK    2  A    between atoms: PA_1  and  O3_29 
REMARK    3  A    between atoms: O5B_4  and  C5B_5 
REMARK    4  A    between atoms: C5B_5  and  C4B_6 
REMARK    5  A    between atoms: C3B_8  and  O3B_9 
REMARK    6  A    between atoms: C2B_11  and  O2B_12 
REMARK    7  A    between atoms: O2B_12  and  P2B_55 
REMARK    8  A    between atoms: C1B_13  and  N9A_14 
REMARK    9  A    between atoms: O3_29  and  PN_30 
REMARK   10  A    between atoms: PN_30  and  O5D_33 
REMARK   11  A    between atoms: O5D_33  and  C5D_34 
REMARK   12  A    between atoms: C5D_34  and  C4D_35 
REMARK   13  A    between atoms: C3D_37  and  O3D_38 
REMARK   14  A    between atoms: C2D_40  and  O2D_41 
REMARK   15  A    between atoms: C1D_43  and  N1N_44 
REMARK   16  A    between atoms: C3N_46  and  C7N_47 
REMARK       I    between atoms: C7N_47  and  N7N_49 
ROOT
HETATM    1  PA  NDP D 503      55.539  12.238 -60.136  1.00 58.86     0.417 P 
HETATM    2  O1A NDP D 503      55.834  12.349 -61.610  1.00 57.42    -0.624 OA
HETATM    3  O2A NDP D 503      54.140  11.861 -59.689  1.00 57.02    -0.624 OA
ENDROOT
BRANCH   1   4
HETATM    4  O5B NDP D 503      56.622  11.183 -59.572  1.00 59.98    -0.287 OA
BRANCH   4   5
HETATM    5  C5B NDP D 503      56.876  10.966 -58.184  1.00 60.52     0.216 C 
BRANCH   5   6
HETATM    6  C4B NDP D 503      57.342   9.536 -57.908  1.00 61.76     0.180 C 
HETATM    7  O4B NDP D 503      56.203   8.686 -57.733  1.00 63.17    -0.353 OA
HETATM    8  C1B NDP D 503      56.377   7.458 -58.463  1.00 61.72     0.263 C 
HETATM    9  C2B NDP D 503      57.857   7.380 -58.832  1.00 61.62     0.216 C 
HETATM   10  C3B NDP D 503      58.187   8.863 -58.988  1.00 60.95     0.183 C 
BRANCH   8  11
HETATM   11  N9A NDP D 503      55.445   7.355 -59.635  1.00 57.09    -0.297 N 
HETATM   12  C4A NDP D 503      55.261   6.266 -60.410  1.00 55.99     0.142 A 
HETATM   13  C5A NDP D 503      54.237   6.569 -61.317  1.00 54.53     0.122 A 
HETATM   14  N3A NDP D 503      55.879   5.036 -60.467  1.00 53.40    -0.336 N 
HETATM   15  N7A NDP D 503      53.806   7.823 -61.048  1.00 53.13    -0.346 N 
HETATM   16  C6A NDP D 503      53.881   5.604 -62.274  1.00 51.53     0.131 A 
HETATM   17  C8A NDP D 503      54.540   8.279 -60.006  1.00 54.63     0.188 A 
ATOM     18  H7A NDP D 503      53.068   8.329 -61.538  1.00  0.00     0.167 HD
HETATM   19  N1A NDP D 503      54.544   4.415 -62.287  1.00 51.72    -0.337 N 
HETATM   20  N6A NDP D 503      52.894   5.858 -63.175  1.00 47.32    -0.383 N 
HETATM   21  C2A NDP D 503      55.524   4.134 -61.400  1.00 51.89     0.183 A 
ATOM     22  H1A NDP D 503      54.294   3.716 -62.986  1.00  0.00     0.168 HD
ATOM     23 2H6A NDP D 503      52.397   6.749 -63.165  1.00  0.00     0.157 HD
ATOM     24 1H6A NDP D 503      52.636   5.157 -63.870  1.00  0.00     0.157 HD
ATOM     25  H3A NDP D 503      56.612   4.807 -59.796  1.00  0.00     0.168 HD
ENDBRANCH   8  11
BRANCH   9  26
HETATM   26  O2B NDP D 503      58.479   6.789 -57.672  1.00 61.36    -0.270 OA
BRANCH  26  27
HETATM   27  P2B NDP D 503      59.942   6.094 -57.624  1.00 65.07     0.422 P 
HETATM   28  O3X NDP D 503      60.035   5.221 -58.852  1.00 65.01    -0.617 OA
HETATM   29  O2X NDP D 503      60.925   7.244 -57.606  1.00 64.73    -0.617 OA
HETATM   30  O1X NDP D 503      59.935   5.298 -56.333  1.00 67.17    -0.617 OA
ENDBRANCH  26  27
ENDBRANCH   9  26
BRANCH  10  31
HETATM   31  O3B NDP D 503      59.582   9.180 -58.892  1.00 60.42    -0.390 OA
ATOM     32  H3B NDP D 503      59.787  10.102 -58.989  1.00  0.00     0.210 HD
ENDBRANCH  10  31
ENDBRANCH   5   6
ENDBRANCH   4   5
ENDBRANCH   1   4
BRANCH   1  33
HETATM   33  O3  NDP D 503      55.876  13.634 -59.378  1.00 60.66    -0.180 OA
BRANCH  33  34
HETATM   34  PN  NDP D 503      57.282  14.433 -59.390  1.00 62.69     0.417 P 
HETATM   35  O2N NDP D 503      58.455  13.514 -59.671  1.00 62.73    -0.624 OA
HETATM   36  O1N NDP D 503      57.295  15.261 -58.130  1.00 64.90    -0.624 OA
BRANCH  34  37
HETATM   37  O5D NDP D 503      57.043  15.430 -60.632  1.00 63.44    -0.287 OA
BRANCH  37  38
HETATM   38  C5D NDP D 503      57.782  15.381 -61.854  1.00 63.14     0.216 C 
BRANCH  38  39
HETATM   39  C4D NDP D 503      57.152  16.357 -62.845  1.00 64.87     0.180 C 
HETATM   40  C3D NDP D 503      57.298  17.818 -62.408  1.00 65.78     0.182 C 
HETATM   41  C2D NDP D 503      55.877  18.282 -62.120  1.00 65.27     0.198 C 
HETATM   42  C1D NDP D 503      54.993  17.290 -62.875  1.00 65.04     0.259 C 
HETATM   43  O4D NDP D 503      55.747  16.078 -62.975  1.00 65.84    -0.353 OA
BRANCH  40  44
HETATM   44  O3D NDP D 503      57.853  18.571 -63.493  1.00 67.92    -0.390 OA
ATOM     45  H3D NDP D 503      58.740  18.281 -63.673  1.00  0.00     0.210 HD
ENDBRANCH  40  44
BRANCH  41  46
HETATM   46  O2D NDP D 503      55.641  19.608 -62.596  1.00 65.31    -0.388 OA
ATOM     47  H2D NDP D 503      56.191  20.225 -62.127  1.00  0.00     0.210 HD
ENDBRANCH  41  46
BRANCH  42  48
HETATM   48  N1N NDP D 503      53.669  17.053 -62.278  1.00 64.84    -0.336 N 
HETATM   49  C2N NDP D 503      52.590  17.153 -63.089  1.00 65.14     0.110 A 
HETATM   50  C3N NDP D 503      51.289  16.902 -62.626  1.00 67.53     0.047 A 
HETATM   51  C4N NDP D 503      51.125  16.554 -61.274  1.00 67.53     0.020 A 
HETATM   52  C5N NDP D 503      52.250  16.456 -60.445  1.00 66.68     0.018 A 
HETATM   53  C6N NDP D 503      53.523  16.701 -60.975  1.00 65.80     0.093 A 
BRANCH  50  54
HETATM   54  C7N NDP D 503      50.095  17.006 -63.560  1.00 69.13     0.250 C 
HETATM   55  O7N NDP D 503      50.251  17.351 -64.729  1.00 69.55    -0.268 OA
HETATM   56  N7N NDP D 503      48.875  16.703 -63.113  1.00 67.92    -0.366 N 
ATOM     57 2H7N NDP D 503      48.073  16.773 -63.740  1.00  0.00     0.159 HD
ATOM     58 1H7N NDP D 503      48.746  16.417 -62.143  1.00  0.00     0.159 HD
ENDBRANCH  50  54
ENDBRANCH  42  48
ENDBRANCH  38  39
ENDBRANCH  37  38
ENDBRANCH  34  37
ENDBRANCH  33  34
ENDBRANCH   1  33
TORSDOF 16
