REMARK  6 active torsions:
REMARK  status: ('A' for Active; 'I' for Inactive)
REMARK    1  A    between atoms: C2_2  and  C12_10 
REMARK    2  A    between atoms: C14_12  and  C17_16 
REMARK    3  A    between atoms: C16_15  and  C30_20 
REMARK    4  A    between atoms: C31_21  and  N40_27 
REMARK    5  A    between atoms: N40_27  and  S42_29 
REMARK    6  A    between atoms: S42_29  and  C43_30 
ROOT
HETATM    1  C30 P06 B 801      -3.865  -1.828   7.097  1.00 42.67     0.033 A 
HETATM    2  C31 P06 B 801      -5.273  -0.191   5.969  1.00 42.58     0.082 A 
HETATM    3  C32 P06 B 801      -4.161  -0.512   6.742  1.00 43.36     0.156 A 
HETATM    4  C33 P06 B 801      -6.121  -1.212   5.533  1.00 42.24     0.033 A 
HETATM    5  C35 P06 B 801      -4.724  -2.846   6.664  1.00 42.72     0.017 A 
HETATM    6  C37 P06 B 801      -5.843  -2.536   5.884  1.00 41.82     0.003 A 
HETATM    7  F39 P06 B 801      -3.357   0.484   7.146  1.00 44.60    -0.203 F 
ENDROOT
BRANCH   1   8
HETATM    8  C16 P06 B 801      -2.697  -2.077   7.922  1.00 44.09     0.066 A 
HETATM    9  N15 P06 B 801      -2.691  -1.489   9.173  1.00 46.93    -0.351 N 
HETATM   10  C14 P06 B 801      -1.591  -1.782   9.832  1.00 48.17     0.059 A 
ATOM     11  H15 P06 B 801      -3.442  -0.904   9.538  1.00  0.00     0.166 HD
HETATM   12  S13 P06 B 801      -0.502  -2.791   8.958  1.00 48.07    -0.071 SA
HETATM   13  C12 P06 B 801      -1.577  -2.840   7.608  1.00 44.51     0.061 A 
BRANCH  10  14
HETATM   14  C17 P06 B 801      -1.290  -1.279  11.243  1.00 47.87    -0.002 C 
HETATM   15  C18 P06 B 801      -0.012  -1.915  11.817  1.00 49.44     0.021 C 
HETATM   16  C22 P06 B 801      -2.457  -1.650  12.183  1.00 47.86     0.021 C 
HETATM   17  C26 P06 B 801      -1.142   0.253  11.243  1.00 44.68     0.021 C 
ENDBRANCH  10  14
BRANCH  13  18
HETATM   18  C2  P06 B 801      -1.167  -3.610   6.430  1.00 45.82     0.055 A 
HETATM   19  C4  P06 B 801      -1.812  -3.530   5.209  1.00 43.93     0.048 A 
HETATM   20  C7  P06 B 801      -1.292  -4.316   4.206  1.00 44.81     0.093 A 
HETATM   21  N6  P06 B 801      -0.221  -5.120   4.357  1.00 45.92    -0.340 N 
HETATM   22  C1  P06 B 801       0.357  -5.140   5.577  1.00 46.32     0.192 A 
ATOM     23  H6  P06 B 801       0.136  -5.686   3.587  1.00  0.00     0.167 HD
HETATM   24  N9  P06 B 801       1.460  -5.959   5.760  1.00 45.68    -0.063 NA
HETATM   25  N3  P06 B 801      -0.086  -4.404   6.627  1.00 47.01    -0.329 N 
ATOM     26  H3  P06 B 801       0.379  -4.447   7.534  1.00  0.00     0.168 HD
ENDBRANCH  13  18
ENDBRANCH   1   8
BRANCH   2  27
HETATM   27  N40 P06 B 801      -5.456   1.203   5.665  1.00 40.82    -0.277 N 
ATOM     28  H40 P06 B 801      -4.650   1.825   5.719  1.00  0.00     0.179 HD
BRANCH  27  29
HETATM   29  S42 P06 B 801      -6.975   1.862   5.216  1.00 46.34     0.269 S 
HETATM   30  O55 P06 B 801      -6.902   3.307   5.324  1.00 47.12    -0.200 OA
HETATM   31  O54 P06 B 801      -8.054   1.158   5.884  1.00 44.79    -0.200 OA
BRANCH  29  32
HETATM   32  C43 P06 B 801      -7.041   1.517   3.475  1.00 47.46     0.156 A 
HETATM   33  C46 P06 B 801      -7.957   0.613   2.942  1.00 47.17     0.142 A 
HETATM   34  C44 P06 B 801      -7.993   0.364   1.571  1.00 47.37     0.044 A 
HETATM   35  F53 P06 B 801      -8.827  -0.033   3.727  1.00 48.53    -0.204 F 
HETATM   36  C47 P06 B 801      -7.102   1.017   0.717  1.00 47.73     0.006 A 
HETATM   37  C50 P06 B 801      -6.182   1.923   1.244  1.00 48.29     0.044 A 
HETATM   38  C49 P06 B 801      -6.155   2.169   2.616  1.00 48.30     0.142 A 
HETATM   39  F52 P06 B 801      -5.260   3.045   3.094  1.00 49.98    -0.204 F 
ENDBRANCH  29  32
ENDBRANCH  27  29
ENDBRANCH   2  27
TORSDOF 6
