REMARK  6 active torsions:
REMARK  status: ('A' for Active; 'I' for Inactive)
REMARK    1  A    between atoms: C2_2  and  C12_10 
REMARK    2  A    between atoms: C14_12  and  C17_16 
REMARK    3  A    between atoms: C16_15  and  C30_20 
REMARK    4  A    between atoms: C31_21  and  N40_27 
REMARK    5  A    between atoms: N40_27  and  S42_29 
REMARK    6  A    between atoms: S42_29  and  C43_30 
ROOT
HETATM    1  C30 P06 A 801       0.237  -2.653 -21.530  1.00 33.46     0.033 A 
HETATM    2  C31 P06 A 801      -2.030  -3.330 -20.975  1.00 32.46     0.082 A 
HETATM    3  C32 P06 A 801      -0.735  -3.643 -21.375  1.00 33.89     0.156 A 
HETATM    4  C33 P06 A 801      -2.379  -2.001 -20.725  1.00 29.50     0.033 A 
HETATM    5  C35 P06 A 801      -0.122  -1.318 -21.287  1.00 31.73     0.017 A 
HETATM    6  C37 P06 A 801      -1.420  -1.000 -20.884  1.00 27.27     0.003 A 
HETATM    7  F39 P06 A 801      -0.433  -4.927 -21.607  1.00 37.45    -0.203 F 
ENDROOT
BRANCH   1   8
HETATM    8  C16 P06 A 801       1.571  -3.020 -21.970  1.00 33.33     0.066 A 
HETATM    9  N15 P06 A 801       1.665  -3.653 -23.194  1.00 34.32    -0.351 N 
HETATM   10  C14 P06 A 801       2.915  -3.928 -23.495  1.00 36.98     0.059 A 
ATOM     11  H15 P06 A 801       0.867  -3.878 -23.788  1.00  0.00     0.166 HD
HETATM   12  S13 P06 A 801       4.038  -3.420 -22.297  1.00 39.50    -0.071 SA
HETATM   13  C12 P06 A 801       2.772  -2.790 -21.310  1.00 35.09     0.061 A 
BRANCH  10  14
HETATM   14  C17 P06 A 801       3.358  -4.625 -24.782  1.00 38.81    -0.002 C 
HETATM   15  C26 P06 A 801       4.841  -5.035 -24.730  1.00 37.86     0.021 C 
HETATM   16  C22 P06 A 801       2.534  -5.916 -24.976  1.00 38.07     0.021 C 
HETATM   17  C18 P06 A 801       3.111  -3.712 -25.997  1.00 30.54     0.021 C 
ENDBRANCH  10  14
BRANCH  13  18
HETATM   18  C2  P06 A 801       3.131  -2.184 -20.021  1.00 36.67     0.055 A 
HETATM   19  C4  P06 A 801       2.208  -1.928 -19.020  1.00 36.22     0.048 A 
HETATM   20  C7  P06 A 801       2.708  -1.371 -17.865  1.00 35.30     0.093 A 
HETATM   21  N6  P06 A 801       4.012  -1.088 -17.672  1.00 34.37    -0.340 N 
HETATM   22  C1  P06 A 801       4.855  -1.379 -18.689  1.00 35.06     0.192 A 
ATOM     23  H6  P06 A 801       4.347  -0.675 -16.802  1.00  0.00     0.167 HD
HETATM   24  N9  P06 A 801       6.201  -1.099 -18.519  1.00 36.89    -0.063 NA
HETATM   25  N3  P06 A 801       4.453  -1.924 -19.865  1.00 35.32    -0.329 N 
ATOM     26  H3  P06 A 801       5.122  -2.131 -20.606  1.00  0.00     0.168 HD
ENDBRANCH  13  18
ENDBRANCH   1   8
BRANCH   2  27
HETATM   27  N40 P06 A 801      -2.939  -4.430 -20.841  1.00 28.38    -0.277 N 
ATOM     28  H40 P06 A 801      -2.568  -5.366 -20.680  1.00  0.00     0.179 HD
BRANCH  27  29
HETATM   29  S42 P06 A 801      -4.635  -4.209 -20.945  1.00 33.77     0.269 S 
HETATM   30  O55 P06 A 801      -5.266  -5.497 -21.163  1.00 34.49    -0.200 OA
HETATM   31  O54 P06 A 801      -4.959  -3.126 -21.852  1.00 36.32    -0.200 OA
BRANCH  29  32
HETATM   32  C43 P06 A 801      -5.065  -3.771 -19.280  1.00 38.49     0.156 A 
HETATM   33  C46 P06 A 801      -5.584  -2.525 -18.928  1.00 37.21     0.142 A 
HETATM   34  C44 P06 A 801      -5.913  -2.250 -17.601  1.00 37.82     0.044 A 
HETATM   35  F53 P06 A 801      -5.786  -1.565 -19.836  1.00 34.71    -0.204 F 
HETATM   36  C47 P06 A 801      -5.721  -3.220 -16.614  1.00 38.76     0.006 A 
HETATM   37  C50 P06 A 801      -5.202  -4.468 -16.960  1.00 38.81     0.044 A 
HETATM   38  C49 P06 A 801      -4.879  -4.733 -18.289  1.00 39.40     0.142 A 
HETATM   39  F52 P06 A 801      -4.380  -5.935 -18.606  1.00 43.34    -0.204 F 
ENDBRANCH  29  32
ENDBRANCH  27  29
ENDBRANCH   2  27
TORSDOF 6
