REMARK  7 active torsions:
REMARK  status: ('A' for Active; 'I' for Inactive)
REMARK    1  A    between atoms: C5_3  and  C7_8 
REMARK    2  A    between atoms: C9_13  and  N13_16 
REMARK    3  A    between atoms: N13_16  and  C14_18 
REMARK    4  A    between atoms: C16_22  and  N21_24 
REMARK       I    between atoms: N21_24  and  C22_26 
REMARK    5  A    between atoms: C22_26  and  C23_27 
REMARK    6  A    between atoms: C27_30  and  C46_33 
REMARK    7  A    between atoms: C46_33  and  N48_34 
ROOT
HETATM    1  C14 STI A   3      25.347  25.511  43.560  1.00 19.63     0.057 A 
HETATM    2  C19 STI A   3      24.299  26.065  44.294  1.00 20.85    -0.035 A 
HETATM    3  C18 STI A   3      23.207  26.610  43.628  1.00 21.30     0.011 A 
HETATM    4  C17 STI A   3      23.149  26.603  42.233  1.00 22.80     0.030 A 
HETATM    5  C16 STI A   3      24.195  26.054  41.495  1.00 23.10     0.037 A 
HETATM    6  C15 STI A   3      25.283  25.490  42.165  1.00 20.70     0.060 A 
HETATM    7  C20 STI A   3      24.325  26.084  45.806  1.00 21.69     0.050 C 
ENDROOT
BRANCH   5   8
HETATM    8  N21 STI A   3      24.061  26.050  40.097  1.00 24.25    -0.323 N 
HETATM    9  C22 STI A   3      24.982  25.624  39.238  1.00 25.02     0.256 C 
HETATM   10  O29 STI A   3      26.067  25.215  39.591  1.00 26.91    -0.267 OA
ATOM     11  H21 STI A   3      23.186  26.403  39.709  1.00  0.00     0.169 HD
BRANCH   9  12
HETATM   12  C23 STI A   3      24.652  25.631  37.779  1.00 24.22     0.032 A 
HETATM   13  C29 STI A   3      23.553  26.349  37.318  1.00 24.89     0.017 A 
HETATM   14  C28 STI A   3      23.242  26.357  35.961  1.00 25.77     0.010 A 
HETATM   15  C27 STI A   3      24.040  25.629  35.081  1.00 23.95    -0.041 A 
HETATM   16  C26 STI A   3      25.135  24.897  35.539  1.00 24.02     0.010 A 
HETATM   17  C25 STI A   3      25.443  24.895  36.896  1.00 23.44     0.017 A 
BRANCH  15  18
HETATM   18  C46 STI A   3      23.708  25.615  33.610  1.00 24.98     0.155 C 
BRANCH  18  19
HETATM   19  N48 STI A   3      23.612  26.946  33.027  1.00 23.08    -0.405 N 
HETATM   20  C49 STI A   3      22.966  26.900  31.718  1.00 24.67     0.136 C 
HETATM   21  C50 STI A   3      22.696  28.302  31.191  1.00 26.07     0.135 C 
HETATM   22  N51 STI A   3      23.858  29.153  31.422  1.00 25.33    -0.414 N 
HETATM   23  C54 STI A   3      23.830  30.437  30.729  1.00 27.54     0.143 C 
HETATM   24  C52 STI A   3      24.407  29.225  32.769  1.00 24.23     0.135 C 
HETATM   25  C53 STI A   3      24.778  27.809  33.187  1.00 22.76     0.136 C 
ENDBRANCH  18  19
ENDBRANCH  15  18
ENDBRANCH   9  12
ENDBRANCH   5   8
BRANCH   1  26
HETATM   26  N13 STI A   3      26.404  24.954  44.201  1.00 19.22    -0.191 N 
ATOM     27  H13 STI A   3      26.313  23.995  44.535  1.00  0.00     0.184 HD
BRANCH  26  28
HETATM   28  C9  STI A   3      27.566  25.594  44.421  1.00 18.30     0.683 A 
HETATM   29  N8  STI A   3      28.465  24.975  45.216  1.00 19.41    -0.191 N 
HETATM   30  C7  STI A   3      29.657  25.542  45.479  1.00 20.34     0.062 A 
ATOM     31  H8  STI A   3      28.238  24.067  45.622  1.00  0.00     0.184 HD
HETATM   32  C12 STI A   3      29.972  26.783  44.926  1.00 20.86     0.048 A 
HETATM   33  C11 STI A   3      29.034  27.388  44.093  1.00 22.27     0.108 A 
HETATM   34  N10 STI A   3      27.854  26.789  43.849  1.00 21.60    -0.202 N 
ATOM     35  H10 STI A   3      27.175  27.235  43.232  1.00  0.00     0.183 HD
BRANCH  30  36
HETATM   36  C5  STI A   3      30.607  24.822  46.355  1.00 20.10     0.007 A 
HETATM   37  C4  STI A   3      30.289  23.540  46.793  1.00 18.65     0.101 A 
HETATM   38  N3  STI A   3      31.156  22.877  47.575  1.00 19.63    -0.374 N 
HETATM   39  C2  STI A   3      32.330  23.424  47.955  1.00 20.56     0.087 A 
ATOM     40  H3  STI A   3      30.921  21.936  47.890  1.00  0.00     0.164 HD
HETATM   41  C1  STI A   3      32.696  24.700  47.541  1.00 21.44     0.018 A 
HETATM   42  C6  STI A   3      31.818  25.409  46.719  1.00 20.14     0.016 A 
ENDBRANCH  30  36
ENDBRANCH  26  28
ENDBRANCH   1  26
TORSDOF 7
