REMARK WARNING: 32 MAX_TORS EXCEEDED!!!
REMARK  33 active torsions:
REMARK  status: ('A' for Active; 'I' for Inactive)
REMARK    1  A    between atoms: N_1  and  C4_31 
REMARK    2  A    between atoms: C_5  and  C1_7 
REMARK    3  A    between atoms: C_5  and  O5_41 
REMARK    4  A    between atoms: C1_7  and  C2_17 
REMARK    5  A    between atoms: C1_7  and  O7_43 
REMARK    6  A    between atoms: C10_8  and  C11_9 
REMARK    7  A    between atoms: C10_8  and  C9_36 
REMARK    8  A    between atoms: C11_9  and  C12_10 
REMARK    9  A    between atoms: C12_10  and  C13_11 
REMARK   10  A    between atoms: C14_12  and  C15_13 
REMARK   11  A    between atoms: C15_13  and  C16_14 
REMARK   12  A    between atoms: C16_14  and  C17_15 
REMARK   13  A    between atoms: C2_17  and  O3_39 
REMARK   14  A    between atoms: C21_18  and  C22_19 
REMARK   15  A    between atoms: C21_18  and  O7_43 
REMARK   16  A    between atoms: C22_19  and  C23_20 
REMARK   17  A    between atoms: C23_20  and  C24_21 
REMARK   18  A    between atoms: C24_21  and  C25_22 
REMARK   19  A    between atoms: C25_22  and  C26_23 
REMARK   20  A    between atoms: C26_23  and  C27_24 
REMARK   21  A    between atoms: C27_24  and  C28_25 
REMARK   22  A    between atoms: C28_25  and  C29_26 
REMARK   23  A    between atoms: C29_26  and  C30_28 
REMARK   24  A    between atoms: C3_27  and  O1_37 
REMARK   25  A    between atoms: C3_27  and  C4_31 
REMARK   26  A    between atoms: C30_28  and  C31_29 
REMARK   27  A    between atoms: C5_32  and  O5_41 
REMARK   28  A    between atoms: C5_32  and  C6_33 
REMARK   29  A    between atoms: C6_33  and  C7_34 
REMARK   30  A    between atoms: C7_34  and  C8_35 
REMARK   31  A    between atoms: C8_35  and  C9_36 
REMARK   32  A    between atoms: O1_37  and  P_44 
REMARK   33  A    between atoms: O3_39  and  P_44 
ROOT
HETATM    1  C1  9Y0 P 202     212.456 224.155 163.982  1.00 35.78     0.180 C 
ENDROOT
BRANCH   1   2
HETATM    2  C   9Y0 P 202     212.996 224.517 165.386  1.00 35.78     0.213 C 
BRANCH   2   3
HETATM    3  O5  9Y0 P 202     212.415 223.640 166.357  1.00 35.78    -0.319 OA
BRANCH   3   4
HETATM    4  C5  9Y0 P 202     213.228 222.522 166.738  1.00 35.78     0.258 C 
HETATM    5  O4  9Y0 P 202     213.885 221.942 165.940  1.00 35.78    -0.265 OA
BRANCH   4   6
HETATM    6  C6  9Y0 P 202     213.255 222.026 168.219  1.00 35.78     0.111 C 
BRANCH   6   7
HETATM    7  C7  9Y0 P 202     213.574 220.494 168.268  1.00 35.78     0.010 C 
BRANCH   7   8
HETATM    8  C8  9Y0 P 202     213.325 219.871 169.670  1.00 35.78     0.000 C 
BRANCH   8   9
HETATM    9  C9  9Y0 P 202     213.264 218.314 169.584  1.00 35.78     0.000 C 
BRANCH   9  10
HETATM   10  C10 9Y0 P 202     212.682 217.664 170.883  1.00 35.78     0.000 C 
BRANCH  10  11
HETATM   11  C11 9Y0 P 202     211.948 216.323 170.562  1.00 35.78     0.004 C 
BRANCH  11  12
HETATM   12  C12 9Y0 P 202     212.081 215.274 171.734  1.00 35.78     0.027 C 
BRANCH  12  13
HETATM   13  C13 9Y0 P 202     211.463 215.767 173.065  1.00 35.78    -0.031 C 
HETATM   14  C14 9Y0 P 202     212.218 215.738 174.205  1.00 35.78    -0.031 C 
BRANCH  14  15
HETATM   15  C15 9Y0 P 202     213.679 215.228 174.168  1.00 35.78     0.027 C 
BRANCH  15  16
HETATM   16  C16 9Y0 P 202     214.340 215.208 175.596  1.00 35.78     0.003 C 
BRANCH  16  17
HETATM   17  C17 9Y0 P 202     215.205 213.934 175.830  1.00 35.78    -0.004 C 
HETATM   18  C18 9Y0 P 202     215.916 213.963 177.219  1.00 35.78     0.005 C 
ENDBRANCH  16  17
ENDBRANCH  15  16
ENDBRANCH  14  15
ENDBRANCH  12  13
ENDBRANCH  11  12
ENDBRANCH  10  11
ENDBRANCH   9  10
ENDBRANCH   8   9
ENDBRANCH   7   8
ENDBRANCH   6   7
ENDBRANCH   4   6
ENDBRANCH   3   4
ENDBRANCH   2   3
ENDBRANCH   1   2
BRANCH   1  19
HETATM   19  C2  9Y0 P 202     213.623 224.138 163.001  1.00 35.78     0.216 C 
BRANCH  19  20
HETATM   20  O3  9Y0 P 202     213.508 225.245 162.134  1.00 35.78    -0.287 OA
BRANCH  20  21
HETATM   21  P   9Y0 P 202     214.791 226.283 161.985  1.00 35.78     0.408 P 
HETATM   22  O2  9Y0 P 202     215.260 226.697 163.351  1.00 35.78    -0.624 OA
HETATM   23  O   9Y0 P 202     215.917 225.605 161.252  1.00 35.78    -0.624 OA
BRANCH  21  24
HETATM   24  O1  9Y0 P 202     214.315 227.621 161.147  1.00 35.78    -0.288 OA
BRANCH  24  25
HETATM   25  C3  9Y0 P 202     212.944 227.778 160.861  1.00 35.78     0.208 C 
BRANCH  25  26
HETATM   26  C4  9Y0 P 202     212.403 228.929 161.720  1.00 35.78     0.256 C 
BRANCH  26  27
HETATM   27  N   9Y0 P 202     211.652 229.859 160.895  1.00 35.78    -0.077 N 
ATOM     28  HN3 9Y0 P 202     212.202 230.198 160.106  1.00  0.00     0.274 HD
ATOM     29  HN2 9Y0 P 202     210.911 229.392 160.372  1.00  0.00     0.274 HD
ATOM     30  HN1 9Y0 P 202     211.292 230.624 161.466  1.00  0.00     0.274 HD
ENDBRANCH  26  27
ENDBRANCH  25  26
ENDBRANCH  24  25
ENDBRANCH  21  24
ENDBRANCH  20  21
ENDBRANCH  19  20
ENDBRANCH   1  19
BRANCH   1  31
HETATM   31  O7  9Y0 P 202     211.472 225.088 163.581  1.00 35.78    -0.312 OA
BRANCH  31  32
HETATM   32  C21 9Y0 P 202     210.157 224.520 163.379  1.00 35.78     0.259 C 
HETATM   33  O6  9Y0 P 202     209.520 224.826 162.435  1.00 35.78    -0.265 OA
BRANCH  32  34
HETATM   34  C22 9Y0 P 202     209.566 223.494 164.412  1.00 35.78     0.111 C 
BRANCH  34  35
HETATM   35  C23 9Y0 P 202     208.075 223.817 164.797  1.00 35.78     0.010 C 
BRANCH  35  36
HETATM   36  C24 9Y0 P 202     207.825 223.812 166.340  1.00 35.78     0.000 C 
BRANCH  36  37
HETATM   37  C25 9Y0 P 202     208.699 222.770 167.108  1.00 35.78     0.000 C 
BRANCH  37  38
HETATM   38  C26 9Y0 P 202     207.860 221.540 167.554  1.00 35.78     0.000 C 
BRANCH  38  39
HETATM   39  C27 9Y0 P 202     207.225 221.735 168.951  1.00 35.78     0.000 C 
BRANCH  39  40
HETATM   40  C28 9Y0 P 202     208.175 221.307 170.094  1.00 35.78     0.000 C 
BRANCH  40  41
HETATM   41  C29 9Y0 P 202     207.403 220.696 171.290  1.00 35.78     0.000 C 
BRANCH  41  42
HETATM   42  C30 9Y0 P 202     208.292 219.718 172.119  1.00 35.78    -0.000 C 
BRANCH  42  43
HETATM   43  C31 9Y0 P 202     208.872 220.387 173.386  1.00 35.78    -0.005 C 
HETATM   44  C32 9Y0 P 202     210.147 219.656 173.903  1.00 35.78     0.005 C 
ENDBRANCH  42  43
ENDBRANCH  41  42
ENDBRANCH  40  41
ENDBRANCH  39  40
ENDBRANCH  38  39
ENDBRANCH  37  38
ENDBRANCH  36  37
ENDBRANCH  35  36
ENDBRANCH  34  35
ENDBRANCH  32  34
ENDBRANCH  31  32
ENDBRANCH   1  31
TORSDOF 33
