REMARK WARNING: 32 MAX_TORS EXCEEDED!!!
REMARK  45 active torsions:
REMARK  status: ('A' for Active; 'I' for Inactive)
REMARK    1  A    between atoms: P_1  and  O_9 
REMARK    2  A    between atoms: P_1  and  O2_3 
REMARK    3  A    between atoms: O2_3  and  C2_21 
REMARK    4  A    between atoms: O3_4  and  C3_32 
REMARK    5  A    between atoms: O4_6  and  C4_43 
REMARK    6  A    between atoms: C_8  and  O9_63 
REMARK    7  A    between atoms: C_8  and  C1_10 
REMARK    8  A    between atoms: C_8  and  C24_26 
REMARK    9  A    between atoms: O_9  and  C1_10 
REMARK   10  A    between atoms: C10_11  and  C11_12 
REMARK   11  A    between atoms: C10_11  and  C9_52 
REMARK   12  A    between atoms: C11_12  and  C12_13 
REMARK   13  A    between atoms: C12_13  and  C13_14 
REMARK   14  A    between atoms: C13_14  and  C14_15 
REMARK   15  A    between atoms: C14_15  and  C15_16 
REMARK   16  A    between atoms: C15_16  and  C16_17 
REMARK   17  A    between atoms: C16_17  and  C17_18 
REMARK   18  A    between atoms: C17_18  and  C18_19 
REMARK   19  A    between atoms: C18_19  and  C19_20 
REMARK   20  A    between atoms: C19_20  and  C20_22 
REMARK   21  A    between atoms: C20_22  and  C21_23 
REMARK   22  A    between atoms: C21_23  and  C22_24 
REMARK   23  A    between atoms: C24_26  and  O11_54 
REMARK   24  A    between atoms: C25_27  and  O11_54 
REMARK   25  A    between atoms: C25_27  and  C26_28 
REMARK   26  A    between atoms: C26_28  and  C27_29 
REMARK   27  A    between atoms: C27_29  and  C28_30 
REMARK   28  A    between atoms: C28_30  and  C29_31 
REMARK   29  A    between atoms: C29_31  and  C30_33 
REMARK   30  A    between atoms: C30_33  and  C31_34 
REMARK   31  A    between atoms: C31_34  and  C32_35 
REMARK   32  A    between atoms: C32_35  and  C33_36 
REMARK   33  A    between atoms: C33_36  and  C35_38 
REMARK   34  A    between atoms: C35_38  and  C36_39 
REMARK   35  A    between atoms: C36_39  and  C37_40 
REMARK   36  A    between atoms: C37_40  and  C38_41 
REMARK   37  A    between atoms: C38_41  and  C39_42 
REMARK   38  A    between atoms: C39_42  and  C40_44 
REMARK   39  A    between atoms: C40_44  and  C41_45 
REMARK   40  A    between atoms: C41_45  and  C42_46 
REMARK   41  A    between atoms: C5_48  and  O5_56 
REMARK   42  A    between atoms: C6_49  and  O6_58 
REMARK   43  A    between atoms: C7_50  and  O7_60 
REMARK   44  A    between atoms: C8_51  and  C9_52 
REMARK   45  A    between atoms: C8_51  and  O9_63 
ROOT
HETATM    1  C   9YF O 303     224.298 184.404 199.129  1.00 31.58     0.180 C 
ENDROOT
BRANCH   1   2
HETATM    2  O9  9YF O 303     223.301 183.662 198.487  1.00 31.58    -0.312 OA
BRANCH   2   3
HETATM    3  C8  9YF O 303     222.204 183.389 199.306  1.00 31.58     0.259 C 
HETATM    4  O10 9YF O 303     221.407 184.233 199.526  1.00 31.58    -0.265 OA
BRANCH   3   5
HETATM    5  C9  9YF O 303     222.029 182.009 199.921  1.00 31.58     0.111 C 
BRANCH   5   6
HETATM    6  C10 9YF O 303     222.805 180.945 199.158  1.00 31.58     0.010 C 
BRANCH   6   7
HETATM    7  C11 9YF O 303     222.155 180.651 197.814  1.00 31.58     0.000 C 
BRANCH   7   8
HETATM    8  C12 9YF O 303     222.593 179.311 197.238  1.00 31.58     0.000 C 
BRANCH   8   9
HETATM    9  C13 9YF O 303     221.506 178.249 197.383  1.00 31.58     0.000 C 
BRANCH   9  10
HETATM   10  C14 9YF O 303     221.058 177.687 196.037  1.00 31.58     0.000 C 
BRANCH  10  11
HETATM   11  C15 9YF O 303     220.502 178.766 195.112  1.00 31.58     0.000 C 
BRANCH  11  12
HETATM   12  C16 9YF O 303     221.245 178.807 193.784  1.00 31.58     0.000 C 
BRANCH  12  13
HETATM   13  C17 9YF O 303     220.525 177.982 192.727  1.00 31.58     0.000 C 
BRANCH  13  14
HETATM   14  C18 9YF O 303     221.238 176.668 192.427  1.00 31.58     0.000 C 
BRANCH  14  15
HETATM   15  C19 9YF O 303     220.508 175.475 193.037  1.00 31.58     0.000 C 
BRANCH  15  16
HETATM   16  C20 9YF O 303     221.246 174.159 192.804  1.00 31.58     0.000 C 
BRANCH  16  17
HETATM   17  C21 9YF O 303     220.731 173.417 191.574  1.00 31.58    -0.000 C 
BRANCH  17  18
HETATM   18  C22 9YF O 303     221.821 172.589 190.898  1.00 31.58    -0.005 C 
HETATM   19  C23 9YF O 303     222.755 173.445 190.046  1.00 31.58     0.005 C 
ENDBRANCH  17  18
ENDBRANCH  16  17
ENDBRANCH  15  16
ENDBRANCH  14  15
ENDBRANCH  13  14
ENDBRANCH  12  13
ENDBRANCH  11  12
ENDBRANCH  10  11
ENDBRANCH   9  10
ENDBRANCH   8   9
ENDBRANCH   7   8
ENDBRANCH   6   7
ENDBRANCH   5   6
ENDBRANCH   3   5
ENDBRANCH   2   3
ENDBRANCH   1   2
BRANCH   1  20
HETATM   20  C1  9YF O 303     225.518 183.516 199.330  1.00 31.58     0.216 C 
BRANCH  20  21
HETATM   21  O   9YF O 303     225.425 182.959 200.604  1.00 31.58    -0.287 OA
BRANCH  21  22
HETATM   22  P   9YF O 303     226.727 183.130 201.585  1.00 31.58     0.408 P 
HETATM   23  O1  9YF O 303     227.166 181.773 202.071  1.00 31.58    -0.624 OA
HETATM   24  O8  9YF O 303     227.835 183.776 200.794  1.00 31.58    -0.624 OA
BRANCH  22  25
HETATM   25  O2  9YF O 303     226.345 184.092 202.864  1.00 31.58    -0.279 OA
BRANCH  25  26
HETATM   26  C2  9YF O 303     225.491 185.196 202.697  1.00 31.58     0.197 C 
HETATM   27  C3  9YF O 303     226.341 186.413 202.277  1.00 31.58     0.181 C 
HETATM   28  C4  9YF O 303     225.641 187.768 202.488  1.00 31.58     0.180 C 
HETATM   29  C5  9YF O 303     225.096 187.885 203.910  1.00 31.58     0.180 C 
HETATM   30  C6  9YF O 303     224.082 186.767 204.163  1.00 31.58     0.180 C 
HETATM   31  C7  9YF O 303     224.741 185.387 204.027  1.00 31.58     0.181 C 
BRANCH  27  32
HETATM   32  O3  9YF O 303     226.660 186.289 200.918  1.00 31.58    -0.390 OA
ATOM     33  H3  9YF O 303     227.092 185.453 200.788  1.00  0.00     0.210 HD
ENDBRANCH  27  32
BRANCH  28  34
HETATM   34  O4  9YF O 303     226.558 188.811 202.279  1.00 31.58    -0.390 OA
ATOM     35  H4  9YF O 303     226.126 189.647 202.409  1.00  0.00     0.210 HD
ENDBRANCH  28  34
BRANCH  29  36
HETATM   36  O5  9YF O 303     224.481 189.136 204.067  1.00 31.58    -0.390 OA
ATOM     37  H5  9YF O 303     225.110 189.830 203.910  1.00  0.00     0.210 HD
ENDBRANCH  29  36
BRANCH  30  38
HETATM   38  O6  9YF O 303     223.068 186.853 203.200  1.00 31.58    -0.390 OA
ATOM     39  H6  9YF O 303     222.660 187.707 203.284  1.00  0.00     0.210 HD
ENDBRANCH  30  38
BRANCH  31  40
HETATM   40  O7  9YF O 303     223.743 184.401 204.131  1.00 31.58    -0.390 OA
ATOM     41  H7  9YF O 303     223.280 184.519 204.952  1.00  0.00     0.210 HD
ENDBRANCH  31  40
ENDBRANCH  25  26
ENDBRANCH  22  25
ENDBRANCH  21  22
ENDBRANCH  20  21
ENDBRANCH   1  20
BRANCH   1  42
HETATM   42  C24 9YF O 303     224.682 185.614 198.284  1.00 31.58     0.213 C 
BRANCH  42  43
HETATM   43  O11 9YF O 303     225.874 186.139 198.780  1.00 31.58    -0.319 OA
BRANCH  43  44
HETATM   44  C25 9YF O 303     226.783 186.485 197.784  1.00 31.58     0.258 C 
HETATM   45  O12 9YF O 303     226.587 187.439 197.115  1.00 31.58    -0.265 OA
BRANCH  44  46
HETATM   46  C26 9YF O 303     228.023 185.628 197.563  1.00 31.58     0.111 C 
BRANCH  46  47
HETATM   47  C27 9YF O 303     227.843 184.661 196.400  1.00 31.58     0.010 C 
BRANCH  47  48
HETATM   48  C28 9YF O 303     228.905 184.851 195.326  1.00 31.58     0.000 C 
BRANCH  48  49
HETATM   49  C29 9YF O 303     228.724 183.867 194.177  1.00 31.58     0.000 C 
BRANCH  49  50
HETATM   50  C30 9YF O 303     228.669 184.562 192.819  1.00 31.58     0.000 C 
BRANCH  50  51
HETATM   51  C31 9YF O 303     227.670 185.715 192.792  1.00 31.58     0.000 C 
BRANCH  51  52
HETATM   52  C32 9YF O 303     226.473 185.450 191.885  1.00 31.58     0.004 C 
BRANCH  52  53
HETATM   53  C33 9YF O 303     226.446 186.385 190.679  1.00 31.58    -0.019 C 
HETATM   54  C34 9YF O 303     226.918 185.655 189.426  1.00 31.58     0.010 C 
BRANCH  53  55
HETATM   55  C35 9YF O 303     225.055 186.975 190.465  1.00 31.58     0.004 C 
BRANCH  55  56
HETATM   56  C36 9YF O 303     224.979 187.886 189.243  1.00 31.58     0.000 C 
BRANCH  56  57
HETATM   57  C37 9YF O 303     224.201 189.162 189.544  1.00 31.58     0.000 C 
BRANCH  57  58
HETATM   58  C38 9YF O 303     224.241 190.161 188.393  1.00 31.58     0.000 C 
BRANCH  58  59
HETATM   59  C39 9YF O 303     225.532 190.972 188.364  1.00 31.58     0.000 C 
BRANCH  59  60
HETATM   60  C40 9YF O 303     225.305 192.426 187.965  1.00 31.58     0.000 C 
BRANCH  60  61
HETATM   61  C41 9YF O 303     226.220 192.917 186.850  1.00 31.58    -0.000 C 
BRANCH  61  62
HETATM   62  C42 9YF O 303     227.004 194.162 187.248  1.00 31.58    -0.005 C 
HETATM   63  C43 9YF O 303     227.770 194.764 186.073  1.00 31.58     0.005 C 
ENDBRANCH  61  62
ENDBRANCH  60  61
ENDBRANCH  59  60
ENDBRANCH  58  59
ENDBRANCH  57  58
ENDBRANCH  56  57
ENDBRANCH  55  56
ENDBRANCH  53  55
ENDBRANCH  52  53
ENDBRANCH  51  52
ENDBRANCH  50  51
ENDBRANCH  49  50
ENDBRANCH  48  49
ENDBRANCH  47  48
ENDBRANCH  46  47
ENDBRANCH  44  46
ENDBRANCH  43  44
ENDBRANCH  42  43
ENDBRANCH   1  42
TORSDOF 45
