REMARK WARNING: 32 MAX_TORS EXCEEDED!!!
REMARK  63 active torsions:
REMARK  status: ('A' for Active; 'I' for Inactive)
REMARK    1  A    between atoms: C1_1  and  CB2_38 
REMARK    2  A    between atoms: C1_1  and  CA2_4 
REMARK    3  A    between atoms: C1_1  and  O1_2 
REMARK    4  A    between atoms: CA2_4  and  OA2_5 
REMARK    5  A    between atoms: OA2_5  and  PA1_6 
REMARK    6  A    between atoms: PA1_6  and  OA5_9 
REMARK    7  A    between atoms: OA5_9  and  CA3_10 
REMARK    8  A    between atoms: CA3_10  and  CA4_11 
REMARK    9  A    between atoms: CA4_11  and  OA6_12 
REMARK   10  A    between atoms: CA4_11  and  CA6_22 
REMARK   11  A    between atoms: OA6_12  and  CA5_13 
REMARK   12  A    between atoms: CA5_13  and  C11_15 
REMARK   13  A    between atoms: C11_15  and  C12_16 
REMARK   14  A    between atoms: C12_16  and  C13_17 
REMARK   15  A    between atoms: C13_17  and  C14_18 
REMARK   16  A    between atoms: C14_18  and  C15_19 
REMARK   17  A    between atoms: C15_19  and  C16_20 
REMARK   18  A    between atoms: CA6_22  and  OA8_23 
REMARK   19  A    between atoms: OA8_23  and  CA7_24 
REMARK   20  A    between atoms: CA7_24  and  C31_26 
REMARK   21  A    between atoms: C31_26  and  C32_27 
REMARK   22  A    between atoms: C32_27  and  C33_28 
REMARK   23  A    between atoms: C33_28  and  C34_29 
REMARK   24  A    between atoms: C34_29  and  C35_30 
REMARK   25  A    between atoms: C35_30  and  C36_31 
REMARK   26  A    between atoms: C36_31  and  C37_32 
REMARK   27  A    between atoms: C37_32  and  C38_33 
REMARK   28  A    between atoms: C38_33  and  C39_34 
REMARK   29  A    between atoms: C39_34  and  C40_35 
REMARK   30  A    between atoms: C40_35  and  C41_36 
REMARK   31  A    between atoms: CB2_38  and  OB2_39 
REMARK   32  A    between atoms: OB2_39  and  PB2_40 
REMARK   33  A    between atoms: PB2_40  and  OB5_43 
REMARK   34  A    between atoms: OB5_43  and  CB3_44 
REMARK   35  A    between atoms: CB3_44  and  CB4_45 
REMARK   36  A    between atoms: CB4_45  and  OB6_46 
REMARK   37  A    between atoms: CB4_45  and  CB6_63 
REMARK   38  A    between atoms: OB6_46  and  CB5_47 
REMARK   39  A    between atoms: CB5_47  and  C51_49 
REMARK   40  A    between atoms: C51_49  and  C52_50 
REMARK   41  A    between atoms: C52_50  and  C53_51 
REMARK   42  A    between atoms: C53_51  and  C54_52 
REMARK   43  A    between atoms: C54_52  and  C55_53 
REMARK   44  A    between atoms: C55_53  and  C56_54 
REMARK   45  A    between atoms: C56_54  and  C57_55 
REMARK   46  A    between atoms: C57_55  and  C58_56 
REMARK   47  A    between atoms: C58_56  and  C59_57 
REMARK   48  A    between atoms: C59_57  and  C60_58 
REMARK   49  A    between atoms: C60_58  and  C61_59 
REMARK   50  A    between atoms: C61_59  and  C62_60 
REMARK   51  A    between atoms: C62_60  and  C63_61 
REMARK   52  A    between atoms: CB6_63  and  OB8_64 
REMARK   53  A    between atoms: OB8_64  and  CB7_65 
REMARK   54  A    between atoms: CB7_65  and  C71_67 
REMARK   55  A    between atoms: C71_67  and  C72_68 
REMARK   56  A    between atoms: C72_68  and  C73_69 
REMARK   57  A    between atoms: C73_69  and  C74_70 
REMARK   58  A    between atoms: C74_70  and  C75_71 
REMARK   59  A    between atoms: C75_71  and  C76_72 
REMARK   60  A    between atoms: C76_72  and  C77_73 
REMARK   61  A    between atoms: C77_73  and  C78_74 
REMARK   62  A    between atoms: C78_74  and  C79_75 
REMARK   63  A    between atoms: C79_75  and  C80_76 
ROOT
HETATM    1  OB2 CDL R 605     246.870 185.962 167.044  1.00 28.62    -0.287 OA
ENDROOT
BRANCH   1   2
HETATM    2  CB2 CDL R 605     246.473 187.050 166.224  1.00 28.62     0.215 C 
BRANCH   2   3
HETATM    3  C1  CDL R 605     246.682 188.302 167.102  1.00 28.62     0.166 C 
BRANCH   3   4
HETATM    4  CA2 CDL R 605     246.191 189.599 166.454  1.00 28.62     0.215 C 
BRANCH   4   5
HETATM    5  OA2 CDL R 605     246.747 190.653 167.218  1.00 28.62    -0.287 OA
BRANCH   5   6
HETATM    6  PA1 CDL R 605     245.652 191.466 168.156  1.00 28.62     0.408 P 
HETATM    7  OA4 CDL R 605     244.541 191.901 167.238  1.00 28.62    -0.624 OA
HETATM    8  OA3 CDL R 605     246.276 192.667 168.797  1.00 28.62    -0.624 OA
BRANCH   6   9
HETATM    9  OA5 CDL R 605     245.077 190.432 169.334  1.00 28.62    -0.287 OA
BRANCH   9  10
HETATM   10  CA3 CDL R 605     245.807 190.372 170.545  1.00 28.62     0.216 C 
BRANCH  10  11
HETATM   11  CA4 CDL R 605     245.702 188.951 171.106  1.00 28.62     0.180 C 
BRANCH  11  12
HETATM   12  OA6 CDL R 605     245.463 189.005 172.485  1.00 28.62    -0.312 OA
BRANCH  12  13
HETATM   13  CA5 CDL R 605     244.591 187.988 172.985  1.00 28.62     0.259 C 
HETATM   14  OA7 CDL R 605     244.174 187.155 172.267  1.00 28.62    -0.265 OA
BRANCH  13  15
HETATM   15  C11 CDL R 605     244.182 187.966 174.479  1.00 28.62     0.111 C 
BRANCH  15  16
HETATM   16  C12 CDL R 605     243.134 189.049 174.827  1.00 28.62     0.010 C 
BRANCH  16  17
HETATM   17  C13 CDL R 605     243.604 189.938 176.000  1.00 28.62     0.000 C 
BRANCH  17  18
HETATM   18  C14 CDL R 605     242.952 189.530 177.347  1.00 28.62     0.000 C 
BRANCH  18  19
HETATM   19  C15 CDL R 605     243.335 190.489 178.509  1.00 28.62    -0.000 C 
BRANCH  19  20
HETATM   20  C16 CDL R 605     242.442 190.248 179.777  1.00 28.62    -0.005 C 
HETATM   21  C17 CDL R 605     242.244 191.538 180.622  1.00 28.62     0.005 C 
ENDBRANCH  19  20
ENDBRANCH  18  19
ENDBRANCH  17  18
ENDBRANCH  16  17
ENDBRANCH  15  16
ENDBRANCH  13  15
ENDBRANCH  12  13
ENDBRANCH  11  12
BRANCH  11  22
HETATM   22  CA6 CDL R 605     247.015 188.217 170.821  1.00 28.62     0.213 C 
BRANCH  22  23
HETATM   23  OA8 CDL R 605     247.617 187.808 172.041  1.00 28.62    -0.319 OA
BRANCH  23  24
HETATM   24  CA7 CDL R 605     249.009 188.073 172.070  1.00 28.62     0.258 C 
HETATM   25  OA9 CDL R 605     249.404 189.129 171.715  1.00 28.62    -0.265 OA
BRANCH  24  26
HETATM   26  C31 CDL R 605     250.015 187.006 172.552  1.00 28.62     0.111 C 
BRANCH  26  27
HETATM   27  C32 CDL R 605     250.136 186.952 174.070  1.00 28.62     0.010 C 
BRANCH  27  28
HETATM   28  C33 CDL R 605     250.491 188.313 174.698  1.00 28.62     0.000 C 
BRANCH  28  29
HETATM   29  C34 CDL R 605     249.357 188.896 175.572  1.00 28.62     0.000 C 
BRANCH  29  30
HETATM   30  C35 CDL R 605     248.557 187.823 176.349  1.00 28.62     0.000 C 
BRANCH  30  31
HETATM   31  C36 CDL R 605     247.822 188.434 177.559  1.00 28.62     0.000 C 
BRANCH  31  32
HETATM   32  C37 CDL R 605     246.333 188.039 177.587  1.00 28.62     0.000 C 
BRANCH  32  33
HETATM   33  C38 CDL R 605     245.908 187.433 178.934  1.00 28.62     0.000 C 
BRANCH  33  34
HETATM   34  C39 CDL R 605     245.997 188.425 180.121  1.00 28.62     0.000 C 
BRANCH  34  35
HETATM   35  C40 CDL R 605     245.736 187.717 181.447  1.00 28.62    -0.000 C 
BRANCH  35  36
HETATM   36  C41 CDL R 605     246.053 188.587 182.667  1.00 28.62    -0.005 C 
HETATM   37  C42 CDL R 605     247.112 187.959 183.569  1.00 28.62     0.005 C 
ENDBRANCH  35  36
ENDBRANCH  34  35
ENDBRANCH  33  34
ENDBRANCH  32  33
ENDBRANCH  31  32
ENDBRANCH  30  31
ENDBRANCH  29  30
ENDBRANCH  28  29
ENDBRANCH  27  28
ENDBRANCH  26  27
ENDBRANCH  24  26
ENDBRANCH  23  24
ENDBRANCH  22  23
ENDBRANCH  11  22
ENDBRANCH  10  11
ENDBRANCH   9  10
ENDBRANCH   6   9
ENDBRANCH   5   6
ENDBRANCH   4   5
ENDBRANCH   3   4
BRANCH   3  38
HETATM   38  O1  CDL R 605     248.054 188.438 167.269  1.00 28.62    -0.391 OA
ATOM     39  H1  CDL R 605     248.183 189.209 167.809  1.00  0.00     0.210 HD
ENDBRANCH   3  38
ENDBRANCH   2   3
ENDBRANCH   1   2
BRANCH   1  40
HETATM   40  PB2 CDL R 605     245.673 185.216 167.918  1.00 28.62     0.408 P 
HETATM   41  OB3 CDL R 605     244.367 185.949 167.754  1.00 28.62    -0.624 OA
HETATM   42  OB4 CDL R 605     245.568 183.839 167.339  1.00 28.62    -0.624 OA
BRANCH  40  43
HETATM   43  OB5 CDL R 605     246.071 185.090 169.524  1.00 28.62    -0.287 OA
BRANCH  43  44
HETATM   44  CB3 CDL R 605     246.656 183.878 169.933  1.00 28.62     0.216 C 
BRANCH  44  45
HETATM   45  CB4 CDL R 605     246.092 183.471 171.286  1.00 28.62     0.180 C 
BRANCH  45  46
HETATM   46  OB6 CDL R 605     244.707 183.735 171.351  1.00 28.62    -0.312 OA
BRANCH  46  47
HETATM   47  CB5 CDL R 605     243.931 182.660 171.850  1.00 28.62     0.259 C 
HETATM   48  OB7 CDL R 605     243.392 181.913 171.106  1.00 28.62    -0.265 OA
BRANCH  47  49
HETATM   49  C51 CDL R 605     243.771 182.446 173.378  1.00 28.62     0.111 C 
BRANCH  49  50
HETATM   50  C52 CDL R 605     243.281 183.722 174.112  1.00 28.62     0.010 C 
BRANCH  50  51
HETATM   51  C53 CDL R 605     242.692 183.353 175.504  1.00 28.62     0.000 C 
BRANCH  51  52
HETATM   52  C54 CDL R 605     242.634 184.555 176.473  1.00 28.62     0.000 C 
BRANCH  52  53
HETATM   53  C55 CDL R 605     241.827 184.190 177.753  1.00 28.62     0.000 C 
BRANCH  53  54
HETATM   54  C56 CDL R 605     241.736 185.380 178.757  1.00 28.62     0.000 C 
BRANCH  54  55
HETATM   55  C57 CDL R 605     240.603 185.152 179.842  1.00 28.62     0.000 C 
BRANCH  55  56
HETATM   56  C58 CDL R 605     240.995 185.772 181.217  1.00 28.62     0.000 C 
BRANCH  56  57
HETATM   57  C59 CDL R 605     239.966 185.416 182.330  1.00 28.62     0.000 C 
BRANCH  57  58
HETATM   58  C60 CDL R 605     240.102 183.926 182.808  1.00 28.62     0.000 C 
BRANCH  58  59
HETATM   59  C61 CDL R 605     239.114 183.600 183.973  1.00 28.62     0.000 C 
BRANCH  59  60
HETATM   60  C62 CDL R 605     239.871 183.070 185.233  1.00 28.62    -0.000 C 
BRANCH  60  61
HETATM   61  C63 CDL R 605     240.038 184.167 186.339  1.00 28.62    -0.005 C 
HETATM   62  C64 CDL R 605     238.853 184.173 187.325  1.00 28.62     0.005 C 
ENDBRANCH  60  61
ENDBRANCH  59  60
ENDBRANCH  58  59
ENDBRANCH  57  58
ENDBRANCH  56  57
ENDBRANCH  55  56
ENDBRANCH  54  55
ENDBRANCH  53  54
ENDBRANCH  52  53
ENDBRANCH  51  52
ENDBRANCH  50  51
ENDBRANCH  49  50
ENDBRANCH  47  49
ENDBRANCH  46  47
ENDBRANCH  45  46
BRANCH  45  63
HETATM   63  CB6 CDL R 605     246.825 184.228 172.395  1.00 28.62     0.213 C 
BRANCH  63  64
HETATM   64  OB8 CDL R 605     247.112 183.237 173.383  1.00 28.62    -0.319 OA
BRANCH  64  65
HETATM   65  CB7 CDL R 605     247.486 183.717 174.675  1.00 28.62     0.258 C 
HETATM   66  OB9 CDL R 605     247.718 184.861 174.847  1.00 28.62    -0.265 OA
BRANCH  65  67
HETATM   67  C71 CDL R 605     247.585 182.717 175.868  1.00 28.62     0.111 C 
BRANCH  67  68
HETATM   68  C72 CDL R 605     246.271 182.691 176.704  1.00 28.62     0.010 C 
BRANCH  68  69
HETATM   69  C73 CDL R 605     246.538 182.951 178.217  1.00 28.62     0.000 C 
BRANCH  69  70
HETATM   70  C74 CDL R 605     245.380 183.763 178.898  1.00 28.62     0.000 C 
BRANCH  70  71
HETATM   71  C75 CDL R 605     244.566 182.908 179.909  1.00 28.62     0.000 C 
BRANCH  71  72
HETATM   72  C76 CDL R 605     244.228 183.699 181.237  1.00 28.62     0.000 C 
BRANCH  72  73
HETATM   73  C77 CDL R 605     245.463 183.735 182.196  1.00 28.62     0.000 C 
BRANCH  73  74
HETATM   74  C78 CDL R 605     245.249 184.617 183.463  1.00 28.62     0.000 C 
BRANCH  74  75
HETATM   75  C79 CDL R 605     244.150 184.043 184.396  1.00 28.62    -0.000 C 
BRANCH  75  76
HETATM   76  C80 CDL R 605     244.317 184.543 185.852  1.00 28.62    -0.005 C 
HETATM   77  C81 CDL R 605     244.069 186.077 185.973  1.00 28.62     0.005 C 
ENDBRANCH  75  76
ENDBRANCH  74  75
ENDBRANCH  73  74
ENDBRANCH  72  73
ENDBRANCH  71  72
ENDBRANCH  70  71
ENDBRANCH  69  70
ENDBRANCH  68  69
ENDBRANCH  67  68
ENDBRANCH  65  67
ENDBRANCH  64  65
ENDBRANCH  63  64
ENDBRANCH  45  63
ENDBRANCH  44  45
ENDBRANCH  43  44
ENDBRANCH  40  43
ENDBRANCH   1  40
TORSDOF 63
