REMARK WARNING: 32 MAX_TORS EXCEEDED!!!
REMARK  37 active torsions:
REMARK  status: ('A' for Active; 'I' for Inactive)
REMARK    1  A    between atoms: C4_3  and  O4_4 
REMARK    2  A    between atoms: C1_8  and  O1_9 
REMARK    3  A    between atoms: C6_11  and  C7_16 
REMARK    4  A    between atoms: C7_16  and  C8_17 
REMARK    5  A    between atoms: C8_17  and  C9_18 
REMARK    6  A    between atoms: C9_18  and  C11_20 
REMARK    7  A    between atoms: C11_20  and  C12_21 
REMARK    8  A    between atoms: C12_21  and  C13_22 
REMARK    9  A    between atoms: C13_22  and  C14_23 
REMARK   10  A    between atoms: C14_23  and  C16_25 
REMARK   11  A    between atoms: C16_25  and  C17_26 
REMARK   12  A    between atoms: C17_26  and  C18_27 
REMARK   13  A    between atoms: C18_27  and  C19_28 
REMARK   14  A    between atoms: C19_28  and  C21_30 
REMARK   15  A    between atoms: C21_30  and  C22_31 
REMARK   16  A    between atoms: C22_31  and  C23_32 
REMARK   17  A    between atoms: C23_32  and  C24_33 
REMARK   18  A    between atoms: C24_33  and  C26_35 
REMARK   19  A    between atoms: C26_35  and  C27_36 
REMARK   20  A    between atoms: C27_36  and  C28_37 
REMARK   21  A    between atoms: C28_37  and  C29_38 
REMARK   22  A    between atoms: C29_38  and  C31_40 
REMARK   23  A    between atoms: C31_40  and  C32_41 
REMARK   24  A    between atoms: C32_41  and  C33_42 
REMARK   25  A    between atoms: C33_42  and  C34_43 
REMARK   26  A    between atoms: C34_43  and  C36_45 
REMARK   27  A    between atoms: C36_45  and  C37_46 
REMARK   28  A    between atoms: C37_46  and  C38_47 
REMARK   29  A    between atoms: C38_47  and  C39_48 
REMARK   30  A    between atoms: C39_48  and  C41_50 
REMARK   31  A    between atoms: C41_50  and  C42_51 
REMARK   32  A    between atoms: C42_51  and  C43_52 
REMARK   33  A    between atoms: C43_52  and  C44_53 
REMARK   34  A    between atoms: C44_53  and  C46_55 
REMARK   35  A    between atoms: C46_55  and  C47_56 
REMARK   36  A    between atoms: C47_56  and  C48_57 
REMARK   37  A    between atoms: C48_57  and  C49_58 
ROOT
HETATM    1  C21 MQ9 C 304     160.942 179.369 176.857  1.00 26.95     0.004 C 
ENDROOT
BRANCH   1   2
HETATM    2  C19 MQ9 C 304     160.443 180.108 175.598  1.00 26.95    -0.019 C 
HETATM    3  C20 MQ9 C 304     160.655 179.318 174.312  1.00 26.95     0.010 C 
BRANCH   2   4
HETATM    4  C18 MQ9 C 304     160.998 181.534 175.491  1.00 26.95     0.004 C 
BRANCH   4   5
HETATM    5  C17 MQ9 C 304     159.842 182.546 175.494  1.00 26.95     0.001 C 
BRANCH   5   6
HETATM    6  C16 MQ9 C 304     159.325 182.827 176.917  1.00 26.95     0.004 C 
BRANCH   6   7
HETATM    7  C14 MQ9 C 304     159.276 184.327 177.209  1.00 26.95    -0.019 C 
HETATM    8  C15 MQ9 C 304     158.414 185.017 176.172  1.00 26.95     0.010 C 
BRANCH   7   9
HETATM    9  C13 MQ9 C 304     158.638 184.555 178.574  1.00 26.95     0.004 C 
BRANCH   9  10
HETATM   10  C12 MQ9 C 304     157.266 183.869 178.696  1.00 26.95     0.001 C 
BRANCH  10  11
HETATM   11  C11 MQ9 C 304     156.828 183.742 180.158  1.00 26.95     0.004 C 
BRANCH  11  12
HETATM   12  C9  MQ9 C 304     156.878 182.296 180.655  1.00 26.95    -0.018 C 
HETATM   13  C10 MQ9 C 304     155.855 182.128 181.764  1.00 26.95     0.010 C 
BRANCH  12  14
HETATM   14  C8  MQ9 C 304     158.269 182.017 181.205  1.00 26.95     0.009 C 
BRANCH  14  15
HETATM   15  C7  MQ9 C 304     158.405 180.611 181.796  1.00 26.95     0.042 C 
BRANCH  15  16
HETATM   16  C6  MQ9 C 304     159.439 180.614 182.923  1.00 26.95    -0.015 A 
HETATM   17  C1  MQ9 C 304     159.087 181.081 184.179  1.00 26.95     0.083 A 
HETATM   18  C2  MQ9 C 304     160.046 181.092 185.227  1.00 26.95     0.011 A 
HETATM   19  C3D MQ9 C 304     159.693 181.562 186.516  1.00 26.95     0.015 A 
HETATM   20  C3  MQ9 C 304     161.302 180.649 185.001  1.00 26.95     0.011 A 
HETATM   21  C3C MQ9 C 304     160.623 181.585 187.537  1.00 26.95     0.001 A 
HETATM   22  C3B MQ9 C 304     161.911 181.122 187.303  1.00 26.95     0.001 A 
HETATM   23  C3A MQ9 C 304     162.263 180.659 186.044  1.00 26.95     0.015 A 
HETATM   24  C4  MQ9 C 304     161.659 180.167 183.723  1.00 26.95     0.083 A 
HETATM   25  C5  MQ9 C 304     160.736 180.160 182.694  1.00 26.95    -0.019 A 
HETATM   26  C5M MQ9 C 304     161.160 179.646 181.326  1.00 26.95     0.052 C 
BRANCH  17  27
HETATM   27  O1  MQ9 C 304     157.792 181.540 184.427  1.00 26.95    -0.359 OA
ATOM     28  H1  MQ9 C 304     157.151 181.533 183.726  1.00  0.00     0.217 HD
ENDBRANCH  17  27
BRANCH  24  29
HETATM   29  O4  MQ9 C 304     162.961 179.724 183.504  1.00 26.95    -0.359 OA
ATOM     30  H4  MQ9 C 304     163.201 179.400 182.644  1.00  0.00     0.217 HD
ENDBRANCH  24  29
ENDBRANCH  15  16
ENDBRANCH  14  15
ENDBRANCH  12  14
ENDBRANCH  11  12
ENDBRANCH  10  11
ENDBRANCH   9  10
ENDBRANCH   7   9
ENDBRANCH   6   7
ENDBRANCH   5   6
ENDBRANCH   4   5
ENDBRANCH   2   4
ENDBRANCH   1   2
BRANCH   1  31
HETATM   31  C22 MQ9 C 304     162.395 179.702 177.257  1.00 26.95     0.001 C 
BRANCH  31  32
HETATM   32  C23 MQ9 C 304     163.438 178.720 176.670  1.00 26.95     0.004 C 
BRANCH  32  33
HETATM   33  C24 MQ9 C 304     164.205 177.955 177.763  1.00 26.95    -0.019 C 
HETATM   34  C25 MQ9 C 304     163.226 177.156 178.610  1.00 26.95     0.010 C 
BRANCH  33  35
HETATM   35  C26 MQ9 C 304     165.367 177.116 177.175  1.00 26.95     0.004 C 
BRANCH  35  36
HETATM   36  C27 MQ9 C 304     165.666 175.763 177.860  1.00 26.95     0.001 C 
BRANCH  36  37
HETATM   37  C28 MQ9 C 304     166.592 175.794 179.100  1.00 26.95     0.004 C 
BRANCH  37  38
HETATM   38  C29 MQ9 C 304     168.113 175.797 178.850  1.00 26.95    -0.019 C 
HETATM   39  C30 MQ9 C 304     168.535 175.245 177.493  1.00 26.95     0.010 C 
BRANCH  38  40
HETATM   40  C31 MQ9 C 304     168.872 175.139 180.025  1.00 26.95     0.004 C 
BRANCH  40  41
HETATM   41  C32 MQ9 C 304     169.118 173.629 179.856  1.00 26.95     0.001 C 
BRANCH  41  42
HETATM   42  C33 MQ9 C 304     168.294 172.758 180.830  1.00 26.95     0.004 C 
BRANCH  42  43
HETATM   43  C34 MQ9 C 304     167.088 172.003 180.227  1.00 26.95    -0.019 C 
HETATM   44  C35 MQ9 C 304     166.993 172.098 178.708  1.00 26.95     0.010 C 
BRANCH  43  45
HETATM   45  C36 MQ9 C 304     167.046 170.538 180.712  1.00 26.95     0.004 C 
BRANCH  45  46
HETATM   46  C37 MQ9 C 304     166.116 169.628 179.889  1.00 26.95     0.001 C 
BRANCH  46  47
HETATM   47  C38 MQ9 C 304     166.713 168.222 179.698  1.00 26.95     0.004 C 
BRANCH  47  48
HETATM   48  C39 MQ9 C 304     166.846 167.777 178.231  1.00 26.95    -0.019 C 
HETATM   49  C40 MQ9 C 304     167.292 166.317 178.169  1.00 26.95     0.010 C 
BRANCH  48  50
HETATM   50  C41 MQ9 C 304     167.722 168.735 177.401  1.00 26.95     0.004 C 
BRANCH  50  51
HETATM   51  C42 MQ9 C 304     168.664 168.085 176.379  1.00 26.95     0.001 C 
BRANCH  51  52
HETATM   52  C43 MQ9 C 304     168.934 168.997 175.177  1.00 26.95     0.004 C 
BRANCH  52  53
HETATM   53  C44 MQ9 C 304     167.733 169.083 174.242  1.00 26.95    -0.019 C 
HETATM   54  C45 MQ9 C 304     167.478 167.721 173.618  1.00 26.95     0.010 C 
BRANCH  53  55
HETATM   55  C46 MQ9 C 304     168.045 170.075 173.132  1.00 26.95     0.004 C 
BRANCH  55  56
HETATM   56  C47 MQ9 C 304     167.626 171.494 173.496  1.00 26.95     0.001 C 
BRANCH  56  57
HETATM   57  C48 MQ9 C 304     166.162 171.759 173.154  1.00 26.95     0.004 C 
BRANCH  57  58
HETATM   58  C49 MQ9 C 304     165.505 172.908 173.916  1.00 26.95    -0.023 C 
HETATM   59  C51 MQ9 C 304     165.333 174.152 173.058  1.00 26.95     0.009 C 
HETATM   60  C50 MQ9 C 304     166.159 173.227 175.250  1.00 26.95     0.009 C 
ENDBRANCH  57  58
ENDBRANCH  56  57
ENDBRANCH  55  56
ENDBRANCH  53  55
ENDBRANCH  52  53
ENDBRANCH  51  52
ENDBRANCH  50  51
ENDBRANCH  48  50
ENDBRANCH  47  48
ENDBRANCH  46  47
ENDBRANCH  45  46
ENDBRANCH  43  45
ENDBRANCH  42  43
ENDBRANCH  41  42
ENDBRANCH  40  41
ENDBRANCH  38  40
ENDBRANCH  37  38
ENDBRANCH  36  37
ENDBRANCH  35  36
ENDBRANCH  33  35
ENDBRANCH  32  33
ENDBRANCH  31  32
ENDBRANCH   1  31
TORSDOF 37
