REMARK  29 active torsions:
REMARK  status: ('A' for Active; 'I' for Inactive)
REMARK    1  A    between atoms: C4_3  and  O4_4 
REMARK    2  A    between atoms: C1_8  and  O1_9 
REMARK    3  A    between atoms: C6_11  and  C7_16 
REMARK    4  A    between atoms: C7_16  and  C8_17 
REMARK    5  A    between atoms: C8_17  and  C9_18 
REMARK    6  A    between atoms: C9_18  and  C11_20 
REMARK    7  A    between atoms: C11_20  and  C12_21 
REMARK    8  A    between atoms: C12_21  and  C13_22 
REMARK    9  A    between atoms: C13_22  and  C14_23 
REMARK   10  A    between atoms: C14_23  and  C16_25 
REMARK   11  A    between atoms: C16_25  and  C17_26 
REMARK   12  A    between atoms: C17_26  and  C18_27 
REMARK   13  A    between atoms: C18_27  and  C19_28 
REMARK   14  A    between atoms: C19_28  and  C21_30 
REMARK   15  A    between atoms: C21_30  and  C22_31 
REMARK   16  A    between atoms: C22_31  and  C23_32 
REMARK   17  A    between atoms: C23_32  and  C24_33 
REMARK   18  A    between atoms: C24_33  and  C26_35 
REMARK   19  A    between atoms: C26_35  and  C27_36 
REMARK   20  A    between atoms: C27_36  and  C28_37 
REMARK   21  A    between atoms: C28_37  and  C29_38 
REMARK   22  A    between atoms: C29_38  and  C31_40 
REMARK   23  A    between atoms: C31_40  and  C32_41 
REMARK   24  A    between atoms: C32_41  and  C33_42 
REMARK   25  A    between atoms: C33_42  and  C34_43 
REMARK   26  A    between atoms: C34_43  and  C36_45 
REMARK   27  A    between atoms: C36_45  and  C37_46 
REMARK   28  A    between atoms: C37_46  and  C38_47 
REMARK   29  A    between atoms: C38_47  and  C39_48 
ROOT
HETATM    1  C16 MQ9 N 608     228.154 198.961 187.841  1.00 31.95     0.004 C 
ENDROOT
BRANCH   1   2
HETATM    2  C17 MQ9 N 608     229.669 198.709 188.023  1.00 31.95     0.001 C 
BRANCH   2   3
HETATM    3  C18 MQ9 N 608     230.518 199.220 186.841  1.00 31.95     0.004 C 
BRANCH   3   4
HETATM    4  C19 MQ9 N 608     231.871 199.777 187.323  1.00 31.95    -0.019 C 
HETATM    5  C20 MQ9 N 608     231.659 200.945 188.277  1.00 31.95     0.010 C 
BRANCH   4   6
HETATM    6  C21 MQ9 N 608     232.862 200.077 186.165  1.00 31.95     0.004 C 
BRANCH   6   7
HETATM    7  C22 MQ9 N 608     233.068 201.568 185.820  1.00 31.95     0.001 C 
BRANCH   7   8
HETATM    8  C23 MQ9 N 608     234.542 202.004 185.989  1.00 31.95     0.004 C 
BRANCH   8   9
HETATM    9  C24 MQ9 N 608     234.821 203.410 185.423  1.00 31.95    -0.019 C 
HETATM   10  C25 MQ9 N 608     236.218 203.467 184.815  1.00 31.95     0.010 C 
BRANCH   9  11
HETATM   11  C26 MQ9 N 608     234.607 204.542 186.459  1.00 31.95     0.004 C 
BRANCH  11  12
HETATM   12  C27 MQ9 N 608     235.024 204.177 187.899  1.00 31.95     0.001 C 
BRANCH  12  13
HETATM   13  C28 MQ9 N 608     234.022 204.685 188.958  1.00 31.95     0.004 C 
BRANCH  13  14
HETATM   14  C29 MQ9 N 608     234.208 204.028 190.343  1.00 31.95    -0.019 C 
HETATM   15  C30 MQ9 N 608     234.342 202.517 190.296  1.00 31.95     0.010 C 
BRANCH  14  16
HETATM   16  C31 MQ9 N 608     233.216 204.494 191.433  1.00 31.95     0.004 C 
BRANCH  16  17
HETATM   17  C32 MQ9 N 608     231.939 203.635 191.597  1.00 31.95     0.001 C 
BRANCH  17  18
HETATM   18  C33 MQ9 N 608     230.848 203.862 190.523  1.00 31.95     0.004 C 
BRANCH  18  19
HETATM   19  C34 MQ9 N 608     229.757 204.892 190.879  1.00 31.95    -0.019 C 
HETATM   20  C35 MQ9 N 608     230.197 206.321 190.580  1.00 31.95     0.010 C 
BRANCH  19  21
HETATM   21  C36 MQ9 N 608     228.470 204.596 190.085  1.00 31.95     0.004 C 
BRANCH  21  22
HETATM   22  C37 MQ9 N 608     227.224 205.275 190.673  1.00 31.95     0.001 C 
BRANCH  22  23
HETATM   23  C38 MQ9 N 608     226.580 206.299 189.714  1.00 31.95     0.004 C 
BRANCH  23  24
HETATM   24  C39 MQ9 N 608     226.257 207.664 190.350  1.00 31.95    -0.023 C 
HETATM   25  C40 MQ9 N 608     224.761 207.841 190.588  1.00 31.95     0.009 C 
HETATM   26  C41 MQ9 N 608     227.072 207.973 191.615  1.00 31.95     0.009 C 
ENDBRANCH  23  24
ENDBRANCH  22  23
ENDBRANCH  21  22
ENDBRANCH  19  21
ENDBRANCH  18  19
ENDBRANCH  17  18
ENDBRANCH  16  17
ENDBRANCH  14  16
ENDBRANCH  13  14
ENDBRANCH  12  13
ENDBRANCH  11  12
ENDBRANCH   9  11
ENDBRANCH   8   9
ENDBRANCH   7   8
ENDBRANCH   6   7
ENDBRANCH   4   6
ENDBRANCH   3   4
ENDBRANCH   2   3
ENDBRANCH   1   2
BRANCH   1  27
HETATM   27  C14 MQ9 N 608     227.597 199.955 188.868  1.00 31.95    -0.019 C 
HETATM   28  C15 MQ9 N 608     227.928 201.362 188.416  1.00 31.95     0.010 C 
BRANCH  27  29
HETATM   29  C13 MQ9 N 608     226.073 199.843 188.952  1.00 31.95     0.004 C 
BRANCH  29  30
HETATM   30  C12 MQ9 N 608     225.577 198.469 189.436  1.00 31.95     0.001 C 
BRANCH  30  31
HETATM   31  C11 MQ9 N 608     224.050 198.366 189.308  1.00 31.95     0.004 C 
BRANCH  31  32
HETATM   32  C9  MQ9 N 608     223.355 197.955 190.612  1.00 31.95    -0.018 C 
HETATM   33  C10 MQ9 N 608     223.651 198.955 191.714  1.00 31.95     0.010 C 
BRANCH  32  34
HETATM   34  C8  MQ9 N 608     223.883 196.593 191.038  1.00 31.95     0.009 C 
BRANCH  34  35
HETATM   35  C7  MQ9 N 608     222.754 195.663 191.489  1.00 31.95     0.042 C 
BRANCH  35  36
HETATM   36  C6  MQ9 N 608     223.146 194.566 192.488  1.00 31.95    -0.015 A 
HETATM   37  C5  MQ9 N 608     223.193 193.228 192.091  1.00 31.95    -0.019 A 
HETATM   38  C5M MQ9 N 608     222.873 192.823 190.665  1.00 31.95     0.052 C 
HETATM   39  C4  MQ9 N 608     223.526 192.235 192.993  1.00 31.95     0.083 A 
HETATM   40  C3  MQ9 N 608     223.825 192.575 194.332  1.00 31.95     0.011 A 
HETATM   41  C2  MQ9 N 608     223.779 193.873 194.727  1.00 31.95     0.011 A 
HETATM   42  C3A MQ9 N 608     224.158 191.550 195.259  1.00 31.95     0.015 A 
HETATM   43  C1  MQ9 N 608     223.434 194.894 193.802  1.00 31.95     0.083 A 
HETATM   44  C3D MQ9 N 608     224.080 194.222 196.071  1.00 31.95     0.015 A 
HETATM   45  C3C MQ9 N 608     224.417 193.228 196.982  1.00 31.95     0.001 A 
HETATM   46  C3B MQ9 N 608     224.465 191.894 196.570  1.00 31.95     0.001 A 
BRANCH  39  47
HETATM   47  O4  MQ9 N 608     223.572 190.900 192.584  1.00 31.95    -0.359 OA
ATOM     48  H4  MQ9 N 608     223.801 190.218 193.204  1.00  0.00     0.217 HD
ENDBRANCH  39  47
BRANCH  43  49
HETATM   49  O1  MQ9 N 608     223.393 196.220 194.233  1.00 31.95    -0.359 OA
ATOM     50  H1  MQ9 N 608     223.162 196.903 193.614  1.00  0.00     0.217 HD
ENDBRANCH  43  49
ENDBRANCH  35  36
ENDBRANCH  34  35
ENDBRANCH  32  34
ENDBRANCH  31  32
ENDBRANCH  30  31
ENDBRANCH  29  30
ENDBRANCH  27  29
ENDBRANCH   1  27
TORSDOF 29
