REMARK  29 active torsions:
REMARK  status: ('A' for Active; 'I' for Inactive)
REMARK    1  A    between atoms: C4_3  and  O4_4 
REMARK    2  A    between atoms: C1_8  and  O1_9 
REMARK    3  A    between atoms: C6_11  and  C7_16 
REMARK    4  A    between atoms: C7_16  and  C8_17 
REMARK    5  A    between atoms: C8_17  and  C9_18 
REMARK    6  A    between atoms: C9_18  and  C11_20 
REMARK    7  A    between atoms: C11_20  and  C12_21 
REMARK    8  A    between atoms: C12_21  and  C13_22 
REMARK    9  A    between atoms: C13_22  and  C14_23 
REMARK   10  A    between atoms: C14_23  and  C16_25 
REMARK   11  A    between atoms: C16_25  and  C17_26 
REMARK   12  A    between atoms: C17_26  and  C18_27 
REMARK   13  A    between atoms: C18_27  and  C19_28 
REMARK   14  A    between atoms: C19_28  and  C21_30 
REMARK   15  A    between atoms: C21_30  and  C22_31 
REMARK   16  A    between atoms: C22_31  and  C23_32 
REMARK   17  A    between atoms: C23_32  and  C24_33 
REMARK   18  A    between atoms: C24_33  and  C26_35 
REMARK   19  A    between atoms: C26_35  and  C27_36 
REMARK   20  A    between atoms: C27_36  and  C28_37 
REMARK   21  A    between atoms: C28_37  and  C29_38 
REMARK   22  A    between atoms: C29_38  and  C31_40 
REMARK   23  A    between atoms: C31_40  and  C32_41 
REMARK   24  A    between atoms: C32_41  and  C33_42 
REMARK   25  A    between atoms: C33_42  and  C34_43 
REMARK   26  A    between atoms: C34_43  and  C36_45 
REMARK   27  A    between atoms: C36_45  and  C37_46 
REMARK   28  A    between atoms: C37_46  and  C38_47 
REMARK   29  A    between atoms: C38_47  and  C39_48 
ROOT
HETATM    1  C16 MQ9 B 608     151.442 180.645 187.839  1.00 31.75     0.004 C 
ENDROOT
BRANCH   1   2
HETATM    2  C14 MQ9 B 608     152.008 179.665 188.874  1.00 31.75    -0.019 C 
HETATM    3  C15 MQ9 B 608     151.667 178.253 188.448  1.00 31.75     0.010 C 
BRANCH   2   4
HETATM    4  C13 MQ9 B 608     153.533 179.774 188.938  1.00 31.75     0.004 C 
BRANCH   4   5
HETATM    5  C12 MQ9 B 608     154.037 181.143 189.426  1.00 31.75     0.001 C 
BRANCH   5   6
HETATM    6  C11 MQ9 B 608     155.567 181.229 189.318  1.00 31.75     0.004 C 
BRANCH   6   7
HETATM    7  C9  MQ9 B 608     156.247 181.653 190.625  1.00 31.75    -0.018 C 
HETATM    8  C10 MQ9 B 608     155.923 180.672 191.736  1.00 31.75     0.010 C 
BRANCH   7   9
HETATM    9  C8  MQ9 B 608     155.726 183.028 191.020  1.00 31.75     0.009 C 
BRANCH   9  10
HETATM   10  C7  MQ9 B 608     156.854 183.952 191.486  1.00 31.75     0.042 C 
BRANCH  10  11
HETATM   11  C6  MQ9 B 608     156.458 185.042 192.491  1.00 31.75    -0.015 A 
HETATM   12  C5  MQ9 B 608     156.412 186.383 192.105  1.00 31.75    -0.019 A 
HETATM   13  C5M MQ9 B 608     156.737 186.802 190.684  1.00 31.75     0.052 C 
HETATM   14  C4  MQ9 B 608     156.075 187.368 193.015  1.00 31.75     0.083 A 
HETATM   15  C3  MQ9 B 608     155.772 187.016 194.350  1.00 31.75     0.011 A 
HETATM   16  C3A MQ9 B 608     155.434 188.032 195.285  1.00 31.75     0.015 A 
HETATM   17  C2  MQ9 B 608     155.817 185.714 194.734  1.00 31.75     0.011 A 
HETATM   18  C3B MQ9 B 608     155.123 187.677 196.592  1.00 31.75     0.001 A 
HETATM   19  C3C MQ9 B 608     155.170 186.339 196.992  1.00 31.75     0.001 A 
HETATM   20  C3D MQ9 B 608     155.511 185.353 196.074  1.00 31.75     0.015 A 
HETATM   21  C1  MQ9 B 608     156.166 184.702 193.801  1.00 31.75     0.083 A 
BRANCH  14  22
HETATM   22  O4  MQ9 B 608     156.030 188.706 192.617  1.00 31.75    -0.359 OA
ATOM     23  H4  MQ9 B 608     155.798 189.383 193.242  1.00  0.00     0.217 HD
ENDBRANCH  14  22
BRANCH  21  24
HETATM   24  O1  MQ9 B 608     156.206 183.372 194.220  1.00 31.75    -0.359 OA
ATOM     25  H1  MQ9 B 608     156.006 183.139 195.119  1.00  0.00     0.217 HD
ENDBRANCH  21  24
ENDBRANCH  10  11
ENDBRANCH   9  10
ENDBRANCH   7   9
ENDBRANCH   6   7
ENDBRANCH   5   6
ENDBRANCH   4   5
ENDBRANCH   2   4
ENDBRANCH   1   2
BRANCH   1  26
HETATM   26  C17 MQ9 B 608     149.927 180.888 188.022  1.00 31.75     0.001 C 
BRANCH  26  27
HETATM   27  C18 MQ9 B 608     149.079 180.373 186.840  1.00 31.75     0.004 C 
BRANCH  27  28
HETATM   28  C19 MQ9 B 608     147.725 179.819 187.323  1.00 31.75    -0.019 C 
HETATM   29  C20 MQ9 B 608     147.937 178.652 188.278  1.00 31.75     0.010 C 
BRANCH  28  30
HETATM   30  C21 MQ9 B 608     146.733 179.519 186.166  1.00 31.75     0.004 C 
BRANCH  30  31
HETATM   31  C22 MQ9 B 608     146.531 178.027 185.820  1.00 31.75     0.001 C 
BRANCH  31  32
HETATM   32  C23 MQ9 B 608     145.061 177.584 185.994  1.00 31.75     0.004 C 
BRANCH  32  33
HETATM   33  C24 MQ9 B 608     144.787 176.174 185.435  1.00 31.75    -0.019 C 
HETATM   34  C25 MQ9 B 608     143.392 176.109 184.823  1.00 31.75     0.010 C 
BRANCH  33  35
HETATM   35  C26 MQ9 B 608     145.003 175.048 186.478  1.00 31.75     0.004 C 
BRANCH  35  36
HETATM   36  C27 MQ9 B 608     144.582 175.419 187.915  1.00 31.75     0.001 C 
BRANCH  36  37
HETATM   37  C28 MQ9 B 608     145.576 174.912 188.981  1.00 31.75     0.004 C 
BRANCH  37  38
HETATM   38  C29 MQ9 B 608     145.391 175.578 190.362  1.00 31.75    -0.019 C 
HETATM   39  C30 MQ9 B 608     145.258 177.089 190.306  1.00 31.75     0.010 C 
BRANCH  38  40
HETATM   40  C31 MQ9 B 608     146.381 175.116 191.457  1.00 31.75     0.004 C 
BRANCH  40  41
HETATM   41  C32 MQ9 B 608     147.660 175.973 191.616  1.00 31.75     0.001 C 
BRANCH  41  42
HETATM   42  C33 MQ9 B 608     148.748 175.744 190.539  1.00 31.75     0.004 C 
BRANCH  42  43
HETATM   43  C34 MQ9 B 608     149.838 174.712 190.890  1.00 31.75    -0.019 C 
HETATM   44  C35 MQ9 B 608     149.393 173.284 190.596  1.00 31.75     0.010 C 
BRANCH  43  45
HETATM   45  C36 MQ9 B 608     151.119 175.005 190.088  1.00 31.75     0.004 C 
BRANCH  45  46
HETATM   46  C37 MQ9 B 608     152.369 174.332 190.673  1.00 31.75     0.001 C 
BRANCH  46  47
HETATM   47  C38 MQ9 B 608     153.009 173.307 189.714  1.00 31.75     0.004 C 
BRANCH  47  48
HETATM   48  C39 MQ9 B 608     153.338 171.944 190.349  1.00 31.75    -0.023 C 
HETATM   49  C40 MQ9 B 608     154.834 171.770 190.587  1.00 31.75     0.009 C 
HETATM   50  C41 MQ9 B 608     152.523 171.633 191.615  1.00 31.75     0.009 C 
ENDBRANCH  47  48
ENDBRANCH  46  47
ENDBRANCH  45  46
ENDBRANCH  43  45
ENDBRANCH  42  43
ENDBRANCH  41  42
ENDBRANCH  40  41
ENDBRANCH  38  40
ENDBRANCH  37  38
ENDBRANCH  36  37
ENDBRANCH  35  36
ENDBRANCH  33  35
ENDBRANCH  32  33
ENDBRANCH  31  32
ENDBRANCH  30  31
ENDBRANCH  28  30
ENDBRANCH  27  28
ENDBRANCH  26  27
ENDBRANCH   1  26
TORSDOF 29
