REMARK  17 active torsions:
REMARK  status: ('A' for Active; 'I' for Inactive)
REMARK    1  A    between atoms: PA_1  and  O3_29 
REMARK    2  A    between atoms: PA_1  and  O5B_4 
REMARK    3  A    between atoms: O5B_4  and  C5B_5 
REMARK    4  A    between atoms: C5B_5  and  C4B_6 
REMARK    5  A    between atoms: C3B_8  and  O3B_9 
REMARK    6  A    between atoms: C2B_11  and  O2B_12 
REMARK    7  A    between atoms: O2B_12  and  P2B_55 
REMARK    8  A    between atoms: C1B_13  and  N9A_14 
REMARK    9  A    between atoms: C6A_19  and  N6A_20 
REMARK   10  A    between atoms: O3_29  and  PN_30 
REMARK   11  A    between atoms: PN_30  and  O5D_33 
REMARK   12  A    between atoms: O5D_33  and  C5D_34 
REMARK   13  A    between atoms: C5D_34  and  C4D_35 
REMARK   14  A    between atoms: C3D_37  and  O3D_38 
REMARK   15  A    between atoms: C2D_40  and  O2D_41 
REMARK   16  A    between atoms: C1D_43  and  N1N_44 
REMARK   17  A    between atoms: C3N_46  and  C7N_47 
REMARK       I    between atoms: C7N_47  and  N7N_49 
ROOT
HETATM    1  PA  NDP B 503     -17.619  22.787 -37.602  1.00 23.64     0.417 P 
HETATM    2  O1A NDP B 503     -16.225  22.499 -38.029  1.00 22.31    -0.624 OA
HETATM    3  O2A NDP B 503     -18.689  22.921 -38.655  1.00 21.67    -0.624 OA
ENDROOT
BRANCH   1   4
HETATM    4  O3  NDP B 503     -17.894  21.470 -36.629  1.00 20.97    -0.180 OA
BRANCH   4   5
HETATM    5  PN  NDP B 503     -19.359  21.302 -35.959  1.00 24.05     0.417 P 
HETATM    6  O2N NDP B 503     -20.154  22.575 -35.772  1.00 27.46    -0.624 OA
HETATM    7  O1N NDP B 503     -19.222  20.306 -34.877  1.00 27.97    -0.624 OA
BRANCH   5   8
HETATM    8  O5D NDP B 503     -20.319  20.340 -37.060  1.00 26.36    -0.287 OA
BRANCH   8   9
HETATM    9  C5D NDP B 503     -21.075  21.143 -37.848  1.00 28.57     0.216 C 
BRANCH   9  10
HETATM   10  C4D NDP B 503     -21.636  20.261 -38.965  1.00 23.05     0.180 C 
HETATM   11  O4D NDP B 503     -20.571  19.884 -39.837  1.00 23.62    -0.353 OA
HETATM   12  C1D NDP B 503     -20.595  18.478 -40.016  1.00 22.51     0.259 C 
HETATM   13  C2D NDP B 503     -21.141  17.907 -38.698  1.00 27.07     0.198 C 
HETATM   14  C3D NDP B 503     -22.222  18.954 -38.374  1.00 30.90     0.182 C 
BRANCH  12  15
HETATM   15  N1N NDP B 503     -19.207  18.062 -40.251  1.00 20.60    -0.337 N 
HETATM   16  C6N NDP B 503     -18.241  18.070 -39.216  1.00 25.00     0.089 C 
HETATM   17  C5N NDP B 503     -16.936  17.944 -39.505  1.00 20.62    -0.005 C 
HETATM   18  C4N NDP B 503     -16.425  17.783 -40.897  1.00 18.20     0.074 C 
HETATM   19  C3N NDP B 503     -17.543  17.598 -41.877  1.00 20.12     0.028 C 
HETATM   20  C2N NDP B 503     -18.833  17.736 -41.520  1.00 18.33     0.106 C 
BRANCH  19  21
HETATM   21  C7N NDP B 503     -17.309  17.274 -43.269  1.00 28.65     0.247 C 
HETATM   22  O7N NDP B 503     -18.203  17.139 -44.122  1.00 25.60    -0.268 OA
HETATM   23  N7N NDP B 503     -16.008  17.143 -43.665  1.00 25.35    -0.366 N 
ATOM     24 2H7N NDP B 503     -15.843  16.915 -44.645  1.00  0.00     0.159 HD
ATOM     25 1H7N NDP B 503     -15.274  17.254 -42.965  1.00  0.00     0.159 HD
ENDBRANCH  19  21
ENDBRANCH  12  15
BRANCH  13  26
HETATM   26  O2D NDP B 503     -21.653  16.624 -38.938  1.00 26.26    -0.388 OA
ATOM     27  H2D NDP B 503     -21.991  16.271 -38.123  1.00  0.00     0.210 HD
ENDBRANCH  13  26
BRANCH  14  28
HETATM   28  O3D NDP B 503     -23.418  18.681 -39.059  1.00 29.00    -0.390 OA
ATOM     29  H3D NDP B 503     -24.085  19.327 -38.859  1.00  0.00     0.210 HD
ENDBRANCH  14  28
ENDBRANCH   9  10
ENDBRANCH   8   9
ENDBRANCH   5   8
ENDBRANCH   4   5
ENDBRANCH   1   4
BRANCH   1  30
HETATM   30  O5B NDP B 503     -17.617  24.223 -36.769  1.00 23.45    -0.287 OA
BRANCH  30  31
HETATM   31  C5B NDP B 503     -17.074  23.968 -35.534  1.00 26.28     0.216 C 
BRANCH  31  32
HETATM   32  C4B NDP B 503     -16.614  25.303 -34.953  1.00 25.22     0.180 C 
HETATM   33  C3B NDP B 503     -17.484  26.472 -35.485  1.00 22.43     0.183 C 
HETATM   34  C2B NDP B 503     -16.487  27.655 -35.308  1.00 30.21     0.216 C 
HETATM   35  C1B NDP B 503     -15.205  26.916 -35.824  1.00 24.07     0.263 C 
HETATM   36  O4B NDP B 503     -15.275  25.550 -35.356  1.00 24.25    -0.353 OA
BRANCH  33  37
HETATM   37  O3B NDP B 503     -18.640  26.649 -34.702  1.00 26.07    -0.390 OA
ATOM     38  H3B NDP B 503     -19.248  25.927 -34.810  1.00  0.00     0.210 HD
ENDBRANCH  33  37
BRANCH  34  39
HETATM   39  O2B NDP B 503     -16.201  27.973 -34.030  1.00 32.93    -0.270 OA
BRANCH  39  40
HETATM   40  P2B NDP B 503     -17.154  29.336 -33.253  1.00 32.30     0.422 P 
HETATM   41  O3X NDP B 503     -17.046  30.393 -34.308  1.00 25.21    -0.617 OA
HETATM   42  O1X NDP B 503     -18.455  28.603 -33.139  1.00 30.95    -0.617 OA
HETATM   43  O2X NDP B 503     -16.362  29.550 -31.958  1.00 40.25    -0.617 OA
ENDBRANCH  39  40
ENDBRANCH  34  39
BRANCH  35  44
HETATM   44  N9A NDP B 503     -15.093  26.914 -37.266  1.00 22.74    -0.297 N 
HETATM   45  C4A NDP B 503     -14.924  28.034 -38.025  1.00 23.37     0.142 A 
HETATM   46  C5A NDP B 503     -14.848  27.573 -39.366  1.00 21.39     0.122 A 
HETATM   47  N3A NDP B 503     -14.846  29.361 -37.666  1.00 24.72    -0.336 N 
HETATM   48  N7A NDP B 503     -14.963  26.165 -39.419  1.00 20.33    -0.346 N 
HETATM   49  C6A NDP B 503     -14.682  28.543 -40.364  1.00 24.70     0.131 A 
HETATM   50  C8A NDP B 503     -15.109  25.812 -38.145  1.00 21.22     0.188 A 
ATOM     51  H7A NDP B 503     -14.940  25.562 -40.241  1.00  0.00     0.167 HD
HETATM   52  N1A NDP B 503     -14.582  29.880 -40.058  1.00 23.68    -0.337 N 
HETATM   53  C2A NDP B 503     -14.679  30.160 -38.725  1.00 22.55     0.183 A 
ATOM     54  H1A NDP B 503     -14.447  30.601 -40.767  1.00  0.00     0.168 HD
ATOM     55  H3A NDP B 503     -14.908  29.695 -36.704  1.00  0.00     0.168 HD
BRANCH  49  56
HETATM   56  N6A NDP B 503     -14.591  28.178 -41.682  1.00 24.18    -0.383 N 
ATOM     57 2H6A NDP B 503     -14.665  27.186 -41.909  1.00  0.00     0.157 HD
ATOM     58 1H6A NDP B 503     -14.470  28.884 -42.408  1.00  0.00     0.157 HD
ENDBRANCH  49  56
ENDBRANCH  35  44
ENDBRANCH  31  32
ENDBRANCH  30  31
ENDBRANCH   1  30
TORSDOF 17
