REMARK  16 active torsions:
REMARK  status: ('A' for Active; 'I' for Inactive)
REMARK    1  A    between atoms: PA_1  and  O3_27 
REMARK    2  A    between atoms: PA_1  and  O5B_4 
REMARK    3  A    between atoms: O5B_4  and  C5B_5 
REMARK    4  A    between atoms: C5B_5  and  C4B_6 
REMARK    5  A    between atoms: C3B_8  and  O3B_9 
REMARK    6  A    between atoms: C2B_11  and  O2B_12 
REMARK    7  A    between atoms: O2B_12  and  P2B_53 
REMARK    8  A    between atoms: C1B_13  and  N9A_14 
REMARK    9  A    between atoms: O3_27  and  PN_28 
REMARK   10  A    between atoms: PN_28  and  O5D_31 
REMARK   11  A    between atoms: O5D_31  and  C5D_32 
REMARK   12  A    between atoms: C5D_32  and  C4D_33 
REMARK   13  A    between atoms: C3D_35  and  O3D_36 
REMARK   14  A    between atoms: C2D_38  and  O2D_39 
REMARK   15  A    between atoms: C1D_41  and  N1N_42 
REMARK   16  A    between atoms: C3N_44  and  C7N_45 
REMARK       I    between atoms: C7N_45  and  N7N_47 
ROOT
HETATM    1  PA  NDP A 506      15.871  11.154 -16.245  1.00 11.32     0.417 P 
HETATM    2  O1A NDP A 506      14.464  11.608 -16.093  1.00 11.10    -0.624 OA
HETATM    3  O2A NDP A 506      16.643  10.690 -15.038  1.00  9.82    -0.624 OA
ENDROOT
BRANCH   1   4
HETATM    4  O3  NDP A 506      15.600   9.935 -17.381  1.00 10.19    -0.180 OA
BRANCH   4   5
HETATM    5  PN  NDP A 506      16.755   8.999 -17.960  1.00 11.84     0.417 P 
HETATM    6  O1N NDP A 506      16.086   8.392 -19.135  1.00 13.92    -0.624 OA
HETATM    7  O2N NDP A 506      18.126   9.619 -18.137  1.00 12.17    -0.624 OA
BRANCH   5   8
HETATM    8  O5D NDP A 506      16.903   7.717 -16.918  1.00  9.82    -0.287 OA
BRANCH   8   9
HETATM    9  C5D NDP A 506      17.917   7.794 -15.962  1.00 10.47     0.216 C 
BRANCH   9  10
HETATM   10  C4D NDP A 506      17.671   6.643 -14.954  1.00 11.56     0.180 C 
HETATM   11  C3D NDP A 506      17.505   5.255 -15.669  1.00  9.30     0.182 C 
HETATM   12  C2D NDP A 506      15.981   4.998 -15.555  1.00 11.14     0.198 C 
HETATM   13  C1D NDP A 506      15.658   5.697 -14.212  1.00 10.74     0.259 C 
HETATM   14  O4D NDP A 506      16.432   6.872 -14.250  1.00 10.59    -0.353 OA
BRANCH  11  15
HETATM   15  O3D NDP A 506      18.238   4.283 -14.952  1.00 11.93    -0.390 OA
ATOM     16  H3D NDP A 506      19.172   4.441 -15.022  1.00  0.00     0.210 HD
ENDBRANCH  11  15
BRANCH  12  17
HETATM   17  O2D NDP A 506      15.677   3.613 -15.431  1.00 12.03    -0.388 OA
ATOM     18  H2D NDP A 506      15.875   3.184 -16.255  1.00  0.00     0.210 HD
ENDBRANCH  12  17
BRANCH  13  19
HETATM   19  N1N NDP A 506      14.250   6.153 -14.112  1.00 10.86    -0.337 N 
HETATM   20  C6N NDP A 506      13.598   6.875 -15.146  1.00 12.90     0.089 A 
HETATM   21  C5N NDP A 506      12.400   7.447 -14.938  1.00 10.67    -0.005 A 
HETATM   22  C4N NDP A 506      11.642   7.322 -13.664  1.00  8.89     0.074 A 
HETATM   23  C3N NDP A 506      12.406   6.565 -12.643  1.00  9.77     0.028 A 
HETATM   24  C2N NDP A 506      13.614   6.000 -12.899  1.00  9.72     0.106 A 
BRANCH  23  25
HETATM   25  C7N NDP A 506      11.887   6.339 -11.284  1.00 11.79     0.247 C 
HETATM   26  N7N NDP A 506      10.668   6.901 -10.972  1.00 17.31    -0.366 N 
ATOM     27 2H7N NDP A 506      10.308   6.744 -10.030  1.00  0.00     0.159 HD
ATOM     28 1H7N NDP A 506      10.187   7.434 -11.696  1.00  0.00     0.159 HD
HETATM   29  O7N NDP A 506      12.470   5.693 -10.407  1.00 11.15    -0.268 OA
ENDBRANCH  23  25
ENDBRANCH  13  19
ENDBRANCH   9  10
ENDBRANCH   8   9
ENDBRANCH   5   8
ENDBRANCH   4   5
ENDBRANCH   1   4
BRANCH   1  30
HETATM   30  O5B NDP A 506      16.802  12.311 -16.927  1.00 10.94    -0.287 OA
BRANCH  30  31
HETATM   31  C5B NDP A 506      16.403  12.589 -18.260  1.00 13.10     0.216 C 
BRANCH  31  32
HETATM   32  C4B NDP A 506      16.854  14.025 -18.623  1.00 10.96     0.180 C 
HETATM   33  O4B NDP A 506      15.828  14.944 -18.219  1.00 11.95    -0.353 OA
HETATM   34  C1B NDP A 506      16.451  16.077 -17.601  1.00 10.56     0.263 C 
HETATM   35  C2B NDP A 506      17.963  15.997 -17.930  1.00 14.08     0.216 C 
HETATM   36  C3B NDP A 506      18.117  14.443 -17.858  1.00 12.38     0.183 C 
BRANCH  34  37
HETATM   37  N9A NDP A 506      16.164  15.997 -16.156  1.00  9.92    -0.297 N 
HETATM   38  C8A NDP A 506      15.445  15.017 -15.459  1.00  9.79     0.188 A 
HETATM   39  N7A NDP A 506      15.348  15.266 -14.157  1.00  9.88    -0.346 N 
HETATM   40  C5A NDP A 506      16.015  16.502 -14.010  1.00  7.52     0.119 A 
ATOM     41  H7A NDP A 506      14.899  14.700 -13.437  1.00  0.00     0.167 HD
HETATM   42  C6A NDP A 506      16.285  17.285 -12.893  1.00  8.19     0.148 A 
HETATM   43  C4A NDP A 506      16.526  16.962 -15.258  1.00  9.15     0.142 A 
HETATM   44  N6A NDP A 506      15.830  16.892 -11.633  1.00  8.98    -0.080 NA
HETATM   45  N1A NDP A 506      16.988  18.447 -13.009  1.00  9.80    -0.339 N 
HETATM   46  C2A NDP A 506      17.401  18.777 -14.271  1.00  9.56     0.183 A 
ATOM     47  H1A NDP A 506      17.194  19.036 -12.202  1.00  0.00     0.167 HD
HETATM   48  N3A NDP A 506      17.230  18.124 -15.434  1.00 11.71    -0.336 N 
ATOM     49  H3A NDP A 506      17.580  18.452 -16.334  1.00  0.00     0.168 HD
ENDBRANCH  34  37
BRANCH  35  50
HETATM   50  O2B NDP A 506      18.044  16.522 -19.172  1.00 13.16    -0.270 OA
BRANCH  50  51
HETATM   51  P2B NDP A 506      19.603  17.107 -19.668  1.00 15.46     0.422 P 
HETATM   52  O1X NDP A 506      20.329  15.801 -19.765  1.00 21.06    -0.617 OA
HETATM   53  O2X NDP A 506      19.251  17.759 -21.010  1.00 18.04    -0.617 OA
HETATM   54  O3X NDP A 506      20.011  18.039 -18.563  1.00 15.13    -0.617 OA
ENDBRANCH  50  51
ENDBRANCH  35  50
BRANCH  36  55
HETATM   55  O3B NDP A 506      19.322  13.983 -18.486  1.00 14.93    -0.390 OA
ATOM     56  H3B NDP A 506      20.104  14.242 -18.012  1.00  0.00     0.210 HD
ENDBRANCH  36  55
ENDBRANCH  31  32
ENDBRANCH  30  31
ENDBRANCH   1  30
TORSDOF 16
