REMARK  1 active torsions:
REMARK  status: ('A' for Active; 'I' for Inactive)
REMARK    1  A    between atoms: C_8  and  N_12 
ROOT
ATOM      1  C   UNL d   1      -3.308   2.084  -1.378  0.00  0.00     0.018 C 
ATOM      2  C   UNL d   1      -2.241   1.144  -0.813  0.00  0.00    -0.011 C 
ATOM      3  C   UNL d   1      -0.815   1.674  -1.152  0.00  0.00    -0.004 C 
ATOM      4  C   UNL d   1      -0.851   3.179  -0.749  0.00  0.00     0.006 C 
ATOM      5  C   UNL d   1      -0.905   3.169   0.798  0.00  0.00     0.007 C 
ATOM      6  C   UNL d   1      -0.897   1.657   1.182  0.00  0.00     0.022 C 
ATOM      7  C   UNL d   1       0.009   1.073   0.041  0.00  0.00     0.012 C 
ATOM      8  C   UNL d   1      -2.297   1.133   0.732  0.00  0.00     0.132 C 
ATOM      9  C   UNL d   1      -3.404   2.063   1.232  0.00  0.00     0.047 C 
ATOM     10  C   UNL d   1      -2.431  -0.270  -1.365  0.00  0.00     0.018 C 
ENDROOT
BRANCH   8  11
ATOM     11  N   UNL d   1      -2.515  -0.241   1.221  0.00  0.00    -0.069 N 
ATOM     12  C   UNL d   1      -2.569  -0.258   2.695  0.00  0.00     0.267 C 
ATOM     13  H   UNL d   1      -1.744  -0.840   0.903  0.00  0.00     0.277 HD
ATOM     14  H   UNL d   1      -3.402  -0.597   0.846  0.00  0.00     0.277 HD
ENDBRANCH   8  11
TORSDOF 1
