REMARK  8 active torsions:
REMARK  status: ('A' for Active; 'I' for Inactive)
REMARK    1  A    between atoms: C_2  and  N_3 
REMARK       I    between atoms: N_3  and  C_4 
REMARK       I    between atoms: C_4  and  N_6 
REMARK    2  A    between atoms: N_6  and  C_7 
REMARK       I    between atoms: N_6  and  C_12 
REMARK    3  A    between atoms: C_7  and  C_8 
REMARK    4  A    between atoms: C_8  and  C_9 
REMARK    5  A    between atoms: C_9  and  N_34 
REMARK    6  A    between atoms: C_12  and  C_14 
REMARK    7  A    between atoms: C_30  and  C_31 
REMARK    8  A    between atoms: C_30  and  N_36 
ROOT
ATOM      1  C   UNL d   1       0.397   4.129   1.187  0.00  0.00     0.105 C 
ATOM      2  C   UNL d   1       1.511   3.722   0.219  0.00  0.00     0.027 C 
ATOM      3  C   UNL d   1       1.634   2.195   0.204  0.00  0.00     0.051 C 
ATOM      4  C   UNL d   1       2.712   1.785  -0.752  0.00  0.00    -0.039 A 
ATOM      5  C   UNL d   1       3.842   2.461  -1.089  0.00  0.00     0.008 A 
ATOM      6  C   UNL d   1       4.749   1.912  -1.995  0.00  0.00     0.003 A 
ATOM      7  C   UNL d   1       4.588   0.677  -2.609  0.00  0.00     0.030 A 
ATOM      8  C   UNL d   1       3.438  -0.041  -2.286  0.00  0.00     0.043 A 
ATOM      9  C   UNL d   1       2.550   0.546  -1.377  0.00  0.00     0.005 A 
ATOM     10  C   UNL d   1       1.419  -0.363  -1.189  0.00  0.00    -0.028 A 
ATOM     11  C   UNL d   1       1.675  -1.411  -1.956  0.00  0.00     0.096 A 
ATOM     12  N   UNL d   1       2.880  -1.237  -2.621  0.00  0.00    -0.365 N 
ATOM     13  H   UNL d   1       3.270  -1.877  -3.237  0.00  0.00     0.165 HD
ATOM     14  C   UNL d   1       0.310   0.047  -0.253  0.00  0.00     0.075 C 
ATOM     15  C   UNL d   1       0.290   1.581  -0.188  0.00  0.00     0.201 C 
ATOM     16  C   UNL d   1      -0.912   3.463   0.757  0.00  0.00     0.249 C 
ATOM     17  N   UNL d   1      -0.736   1.995   0.793  0.00  0.00    -0.062 N 
ATOM     18  H   UNL d   1      -0.427   1.721   1.733  0.00  0.00     0.280 HD
ENDROOT
BRANCH   1  19
ATOM     19  C   UNL d   1       0.232   5.627   1.163  0.00  0.00     0.233 C 
ATOM     20  N   UNL d   1      -0.534   6.235   2.091  0.00  0.00    -0.270 N 
ATOM     21  C   UNL d   1      -1.063   5.519   3.103  0.00  0.00     0.325 C 
ATOM     22  N   UNL d   1      -1.918   6.103   3.965  0.00  0.00    -0.343 N 
ATOM     23  O   UNL d   1      -0.769   4.348   3.237  0.00  0.00    -0.247 OA
ATOM     24  H   UNL d   1      -2.153   7.038   3.858  0.00  0.00     0.164 HD
ATOM     25  O   UNL d   1       0.789   6.285   0.310  0.00  0.00    -0.272 OA
BRANCH  20  26
ATOM     26  C   UNL d   1      -0.791   7.675   1.998  0.00  0.00     0.138 C 
BRANCH  26  27
ATOM     27  C   UNL d   1      -2.054   7.915   1.168  0.00  0.00     0.048 C 
BRANCH  27  28
ATOM     28  C   UNL d   1      -2.322   9.418   1.072  0.00  0.00     0.235 C 
BRANCH  28  29
ATOM     29  N   UNL d   1      -3.532   9.634   0.250  0.00  0.00    -0.079 N 
ATOM     30  C   UNL d   1      -4.723   9.124   0.961  0.00  0.00     0.269 C 
ATOM     31  C   UNL d   1      -3.694  11.075  -0.040  0.00  0.00     0.269 C 
ATOM     32  H   UNL d   1      -3.428   9.126  -0.636  0.00  0.00     0.278 HD
ENDBRANCH  28  29
ENDBRANCH  27  28
ENDBRANCH  26  27
ENDBRANCH  20  26
BRANCH  22  33
ATOM     33  C   UNL d   1      -2.494   5.325   5.065  0.00  0.00     0.120 C 
ATOM     34  C   UNL d   1      -3.424   6.217   5.889  0.00  0.00     0.026 C 
ENDBRANCH  22  33
ENDBRANCH   1  19
BRANCH  17  35
ATOM     35  C   UNL d   1      -2.018   1.326   0.496  0.00  0.00     0.262 C 
BRANCH  35  36
ATOM     36  C   UNL d   1      -2.978   1.591   1.627  0.00  0.00    -0.010 C 
ATOM     37  C   UNL d   1      -4.157   2.104   1.379  0.00  0.00     0.008 C 
ENDBRANCH  35  36
ENDBRANCH  17  35
TORSDOF 8
