REMARK  11 active torsions:
REMARK  status: ('A' for Active; 'I' for Inactive)
REMARK    1  A    between atoms: O_2  and  C_3 
REMARK    2  A    between atoms: C_8  and  O_9 
REMARK    3  A    between atoms: O_9  and  C_10 
REMARK    4  A    between atoms: C_10  and  C_11 
REMARK    5  A    between atoms: C_11  and  N_32 
REMARK    6  A    between atoms: C_12  and  C_13 
REMARK    7  A    between atoms: C_12  and  N_32 
REMARK    8  A    between atoms: C_13  and  C_14 
REMARK    9  A    between atoms: C_13  and  O_30 
REMARK   10  A    between atoms: C_14  and  O_15 
REMARK   11  A    between atoms: O_15  and  C_16 
ROOT
ATOM      1  C   UNL d   1       2.136   0.985   1.184  0.00  0.00     0.168 C 
ENDROOT
BRANCH   1   2
ATOM      2  C   UNL d   1       1.353   1.550  -0.003  0.00  0.00     0.266 C 
BRANCH   2   3
ATOM      3  N   UNL d   1      -0.015   0.998   0.015  0.00  0.00    -0.071 N 
ATOM      4  H   UNL d   1       0.032  -0.025  -0.054  0.00  0.00     0.277 HD
ATOM      5  H   UNL d   1      -0.475   1.261   0.894  0.00  0.00     0.277 HD
BRANCH   3   6
ATOM      6  C   UNL d   1      -0.795   1.527  -1.120  0.00  0.00     0.259 C 
BRANCH   6   7
ATOM      7  C   UNL d   1      -2.207   0.938  -1.076  0.00  0.00     0.203 C 
BRANCH   7   8
ATOM      8  O   UNL d   1      -2.879   1.399   0.098  0.00  0.00    -0.347 OA
BRANCH   8   9
ATOM      9  C   UNL d   1      -4.154   0.966   0.290  0.00  0.00     0.102 A 
ATOM     10  C   UNL d   1      -4.868   1.376   1.412  0.00  0.00     0.101 A 
ATOM     11  C   UNL d   1      -6.166   0.931   1.604  0.00  0.00     0.039 A 
ATOM     12  C   UNL d   1      -6.749   0.082   0.681  0.00  0.00     0.003 A 
ATOM     13  C   UNL d   1      -6.040  -0.324  -0.433  0.00  0.00     0.003 A 
ATOM     14  C   UNL d   1      -4.746   0.120  -0.633  0.00  0.00     0.039 A 
BRANCH  10  15
ATOM     15  O   UNL d   1      -4.293   2.211   2.318  0.00  0.00    -0.353 OA
ATOM     16  C   UNL d   1      -5.085   2.590   3.446  0.00  0.00     0.210 C 
ENDBRANCH  10  15
ENDBRANCH   8   9
ENDBRANCH   7   8
ENDBRANCH   6   7
ENDBRANCH   3   6
ENDBRANCH   2   3
ENDBRANCH   1   2
BRANCH   1  17
ATOM     17  C   UNL d   1       3.515   1.646   1.246  0.00  0.00     0.209 C 
BRANCH  17  18
ATOM     18  O   UNL d   1       4.202   1.205   2.418  0.00  0.00    -0.348 OA
BRANCH  18  19
ATOM     19  C   UNL d   1       5.449   1.702   2.625  0.00  0.00     0.082 A 
ATOM     20  C   UNL d   1       6.179   1.319   3.754  0.00  0.00     0.036 A 
ATOM     21  C   UNL d   1       7.468   1.829   3.962  0.00  0.00     0.046 A 
ATOM     22  C   UNL d   1       5.902   0.409   4.880  0.00  0.00     0.006 A 
ATOM     23  C   UNL d   1       8.004   2.725   3.041  0.00  0.00     0.030 A 
ATOM     24  N   UNL d   1       7.967   1.292   5.135  0.00  0.00    -0.355 N 
ATOM     25  C   UNL d   1       7.274   3.100   1.933  0.00  0.00     0.005 A 
ATOM     26  C   UNL d   1       6.002   2.593   1.722  0.00  0.00     0.038 A 
ATOM     27  C   UNL d   1       7.039   0.435   5.701  0.00  0.00     0.043 A 
ATOM     28  H   UNL d   1       8.841   1.487   5.507  0.00  0.00     0.166 HD
ATOM     29  C   UNL d   1       7.061  -0.336   6.859  0.00  0.00     0.030 A 
ATOM     30  C   UNL d   1       5.974  -1.115   7.190  0.00  0.00     0.002 A 
ATOM     31  C   UNL d   1       4.851  -1.140   6.378  0.00  0.00     0.001 A 
ATOM     32  C   UNL d   1       4.810  -0.383   5.227  0.00  0.00     0.014 A 
ENDBRANCH  18  19
ENDBRANCH  17  18
ENDBRANCH   1  17
BRANCH   1  33
ATOM     33  O   UNL d   1       2.292  -0.427   1.022  0.00  0.00    -0.392 OA
ATOM     34  H   UNL d   1       2.767  -0.681   0.219  0.00  0.00     0.210 HD
ENDBRANCH   1  33
TORSDOF 11
