REMARK  1 active torsions:
REMARK  status: ('A' for Active; 'I' for Inactive)
REMARK    1  A    between atoms: C_2  and  N_10 
ROOT
ATOM      1  C   UNL d   1       0.002  -0.004   0.002  0.00  0.00     0.244 C 
ATOM      2  C   UNL d   1       1.346  -0.318  -0.695  0.00  0.00     0.302 C 
ATOM      3  C   UNL d   1       2.170   0.925  -0.416  0.00  0.00     0.274 C 
ATOM      4  O   UNL d   1       3.371   1.033  -0.544  0.00  0.00    -0.269 OA
ATOM      5  N   UNL d   1       1.323   1.888  -0.000  0.00  0.00    -0.233 N 
ATOM      6  O   UNL d   1      -0.018   1.436   0.010  0.00  0.00    -0.275 OA
ATOM      7  H   UNL d   1       1.599   2.781   0.260  0.00  0.00     0.197 HD
ENDROOT
BRANCH   2   8
ATOM      8  N   UNL d   1       1.143  -0.477  -2.146  0.00  0.00    -0.064 N 
ATOM      9  H   UNL d   1       2.027  -0.705  -2.599  0.00  0.00     0.275 HD
ATOM     10  H   UNL d   1       0.469  -1.220  -2.325  0.00  0.00     0.275 HD
ATOM     11  H   UNL d   1       0.785   0.402  -2.535  0.00  0.00     0.275 HD
ENDBRANCH   2   8
TORSDOF 1
