REMARK  7 active torsions:
REMARK  status: ('A' for Active; 'I' for Inactive)
REMARK    1  A    between atoms: C_2  and  N_22 
REMARK    2  A    between atoms: C_5  and  C_6 
REMARK    3  A    between atoms: C_5  and  N_22 
REMARK    4  A    between atoms: C_6  and  C_7 
REMARK    5  A    between atoms: C_6  and  O_20 
REMARK    6  A    between atoms: C_7  and  O_8 
REMARK    7  A    between atoms: O_8  and  C_9 
ROOT
ATOM      1  C   UNL d   1      -6.393   0.896  -1.003  0.00  0.00     0.209 C 
ENDROOT
BRANCH   1   2
ATOM      2  C   UNL d   1      -6.978   0.584  -2.383  0.00  0.00     0.168 C 
BRANCH   2   3
ATOM      3  C   UNL d   1      -8.495   0.425  -2.269  0.00  0.00     0.267 C 
BRANCH   3   4
ATOM      4  N   UNL d   1      -9.037   0.008  -3.577  0.00  0.00    -0.065 N 
ATOM      5  H   UNL d   1      -8.812   0.722  -4.280  0.00  0.00     0.278 HD
ATOM      6  H   UNL d   1      -8.612  -0.886  -3.849  0.00  0.00     0.278 HD
BRANCH   4   7
ATOM      7  C   UNL d   1     -10.501  -0.153  -3.497  0.00  0.00     0.115 C 
ATOM      8  C   UNL d   1     -11.143   1.177  -3.097  0.00  0.00     0.045 C 
ATOM      9  C   UNL d   1     -11.033  -0.586  -4.865  0.00  0.00     0.045 C 
ATOM     10  C   UNL d   1     -10.845  -1.220  -2.455  0.00  0.00     0.045 C 
ENDBRANCH   4   7
ENDBRANCH   3   4
ENDBRANCH   2   3
BRANCH   2  11
ATOM     11  O   UNL d   1      -6.676   1.655  -3.280  0.00  0.00    -0.392 OA
ATOM     12  H   UNL d   1      -7.033   2.510  -3.006  0.00  0.00     0.210 HD
ENDBRANCH   2  11
ENDBRANCH   1   2
BRANCH   1  13
ATOM     13  O   UNL d   1      -4.967   0.929  -1.087  0.00  0.00    -0.348 OA
BRANCH  13  14
ATOM     14  C   UNL d   1      -4.288   1.194   0.060  0.00  0.00     0.076 A 
ATOM     15  C   UNL d   1      -2.901   1.241   0.047  0.00  0.00    -0.011 A 
ATOM     16  C   UNL d   1      -2.218   1.518   1.232  0.00  0.00     0.019 A 
ATOM     17  C   UNL d   1      -2.172   0.990  -1.244  0.00  0.00     0.043 C 
ATOM     18  C   UNL d   1      -2.926   1.741   2.416  0.00  0.00     0.016 A 
ATOM     19  C   UNL d   1      -0.742   1.584   1.239  0.00  0.00     0.160 C 
ATOM     20  C   UNL d   1      -4.304   1.690   2.413  0.00  0.00     0.004 A 
ATOM     21  C   UNL d   1      -4.984   1.418   1.240  0.00  0.00     0.037 A 
ATOM     22  C   UNL d   1      -0.013   1.086   0.008  0.00  0.00     0.084 C 
ATOM     23  O   UNL d   1      -0.135   2.022   2.193  0.00  0.00    -0.292 OA
ATOM     24  C   UNL d   1      -0.775   1.604  -1.219  0.00  0.00     0.012 C 
ENDBRANCH  13  14
ENDBRANCH   1  13
TORSDOF 7
