REMARK  12 active torsions:
REMARK  status: ('A' for Active; 'I' for Inactive)
REMARK    1  A    between atoms: C_2  and  C_3 
REMARK    2  A    between atoms: C_3  and  C_4 
REMARK    3  A    between atoms: C_4  and  N_34 
REMARK    4  A    between atoms: C_5  and  C_6 
REMARK    5  A    between atoms: C_5  and  N_34 
REMARK    6  A    between atoms: C_6  and  C_7 
REMARK    7  A    between atoms: C_9  and  C_10 
REMARK    8  A    between atoms: C_9  and  N_34 
REMARK    9  A    between atoms: C_10  and  C_11 
REMARK   10  A    between atoms: C_11  and  C_12 
REMARK   11  A    between atoms: C_11  and  O_32 
REMARK   12  A    between atoms: C_26  and  C_28 
ROOT
ATOM      1  C   UNL d   1       1.586   6.382   0.373  0.00  0.00    -0.018 A 
ATOM      2  C   UNL d   1       1.354   5.070   0.164  0.00  0.00     0.024 A 
ATOM      3  C   UNL d   1       0.057   4.521   0.284  0.00  0.00    -0.003 A 
ATOM      4  C   UNL d   1      -1.030   5.356   0.630  0.00  0.00    -0.011 A 
ATOM      5  C   UNL d   1      -2.311   4.813   0.749  0.00  0.00     0.037 A 
ATOM      6  C   UNL d   1      -2.504   3.469   0.522  0.00  0.00     0.036 A 
ATOM      7  C   UNL d   1      -1.433   2.647   0.187  0.00  0.00     0.048 A 
ATOM      8  C   UNL d   1      -0.172   3.154   0.065  0.00  0.00     0.046 A 
ATOM      9 CL   UNL d   1       1.149   2.110  -0.360  0.00  0.00    -0.083 Cl
ATOM     10 CL   UNL d   1      -4.096   2.792   0.662  0.00  0.00    -0.084 Cl
ATOM     11  C   UNL d   1      -0.779   6.782   0.857  0.00  0.00    -0.013 A 
ATOM     12  C   UNL d   1       0.541   7.269   0.721  0.00  0.00    -0.016 A 
ATOM     13  C   UNL d   1       0.791   8.632   0.936  0.00  0.00     0.014 A 
ATOM     14  C   UNL d   1      -0.236   9.464   1.271  0.00  0.00     0.017 A 
ATOM     15  C   UNL d   1      -1.532   8.981   1.403  0.00  0.00     0.048 A 
ATOM     16  C   UNL d   1      -1.809   7.659   1.201  0.00  0.00     0.029 A 
ENDROOT
BRANCH   1  17
ATOM     17  C   UNL d   1       2.988   6.915   0.232  0.00  0.00     0.153 C 
BRANCH  17  18
ATOM     18  C   UNL d   1       3.662   6.947   1.605  0.00  0.00     0.064 C 
BRANCH  18  19
ATOM     19  C   UNL d   1       5.039   7.603   1.482  0.00  0.00     0.237 C 
BRANCH  19  20
ATOM     20  N   UNL d   1       5.668   7.646   2.818  0.00  0.00    -0.071 N 
ATOM     21  H   UNL d   1       5.011   8.072   3.482  0.00  0.00     0.279 HD
BRANCH  20  22
ATOM     22  C   UNL d   1       5.987   6.276   3.271  0.00  0.00     0.234 C 
BRANCH  22  23
ATOM     23  C   UNL d   1       6.946   5.597   2.291  0.00  0.00     0.027 C 
BRANCH  23  24
ATOM     24  C   UNL d   1       7.234   4.171   2.765  0.00  0.00    -0.003 C 
ATOM     25  C   UNL d   1       8.194   3.492   1.785  0.00  0.00     0.005 C 
ENDBRANCH  23  24
ENDBRANCH  22  23
ENDBRANCH  20  22
BRANCH  20  26
ATOM     26  C   UNL d   1       6.899   8.462   2.771  0.00  0.00     0.234 C 
BRANCH  26  27
ATOM     27  C   UNL d   1       7.324   8.794   4.203  0.00  0.00     0.027 C 
BRANCH  27  28
ATOM     28  C   UNL d   1       8.588   9.656   4.173  0.00  0.00    -0.003 C 
ATOM     29  C   UNL d   1       9.012   9.988   5.605  0.00  0.00     0.005 C 
ENDBRANCH  27  28
ENDBRANCH  26  27
ENDBRANCH  20  26
ENDBRANCH  19  20
ENDBRANCH  18  19
ENDBRANCH  17  18
BRANCH  17  30
ATOM     30  O   UNL d   1       3.733   6.067  -0.645  0.00  0.00    -0.391 OA
ATOM     31  H   UNL d   1       3.805   5.152  -0.341  0.00  0.00     0.210 HD
ENDBRANCH  17  30
ENDBRANCH   1  17
BRANCH  15  32
ATOM     32  C   UNL d   1      -2.645   9.927   1.774  0.00  0.00     0.417 C 
ATOM     33  F   UNL d   1      -2.128  11.218   1.929  0.00  0.00    -0.166 F 
ATOM     34  F   UNL d   1      -3.611   9.930   0.762  0.00  0.00    -0.166 F 
ATOM     35  F   UNL d   1      -3.229   9.512   2.976  0.00  0.00    -0.166 F 
ENDBRANCH  15  32
TORSDOF 12
