REMARK  9 active torsions:
REMARK  status: ('A' for Active; 'I' for Inactive)
REMARK    1  A    between atoms: C_2  and  C_3 
REMARK       I    between atoms: C_3  and  N_5 
REMARK    2  A    between atoms: N_5  and  C_6 
REMARK    3  A    between atoms: N_5  and  C_12 
REMARK    4  A    between atoms: C_12  and  C_29 
REMARK    5  A    between atoms: C_17  and  C_18 
REMARK    6  A    between atoms: C_17  and  N_32 
REMARK    7  A    between atoms: C_18  and  N_19 
REMARK    8  A    between atoms: N_22  and  C_27 
REMARK    9  A    between atoms: C_29  and  O_30 
ROOT
ATOM      1  C   UNL d   1       4.883   0.092  -0.211  0.00  0.00     0.065 C 
ATOM      2  C   UNL d   1       4.835   0.941  -1.484  0.00  0.00     0.061 C 
ATOM      3  C   UNL d   1       4.645   0.022  -2.695  0.00  0.00     0.237 C 
ATOM      4  C   UNL d   1       5.794  -1.792  -1.571  0.00  0.00     0.237 C 
ATOM      5  C   UNL d   1       6.018  -0.929  -0.328  0.00  0.00     0.061 C 
ATOM      6  N   UNL d   1       5.782  -0.921  -2.765  0.00  0.00    -0.069 N 
ATOM      7  H   UNL d   1       6.658  -0.385  -2.795  0.00  0.00     0.279 HD
ENDROOT
BRANCH   1   8
ATOM      8  N   UNL d   1       3.608  -0.610  -0.041  0.00  0.00    -0.306 N 
ATOM      9  C   UNL d   1       3.480  -1.553   0.913  0.00  0.00     0.224 C 
ATOM     10  O   UNL d   1       4.389  -1.757   1.690  0.00  0.00    -0.273 OA
BRANCH   9  11
ATOM     11  C   UNL d   1       2.207  -2.353   1.016  0.00  0.00     0.099 C 
ATOM     12  C   UNL d   1       2.267  -3.249   2.254  0.00  0.00     0.014 C 
ENDBRANCH   9  11
BRANCH   8  13
ATOM     13  C   UNL d   1       2.524  -0.301  -0.870  0.00  0.00     0.038 A 
ATOM     14  C   UNL d   1       1.964   0.970  -0.839  0.00  0.00     0.030 A 
ATOM     15  C   UNL d   1       0.894   1.271  -1.659  0.00  0.00     0.002 A 
ATOM     16  C   UNL d   1       0.380   0.309  -2.508  0.00  0.00     0.000 A 
ATOM     17  C   UNL d   1       0.935  -0.957  -2.541  0.00  0.00     0.002 A 
ATOM     18  C   UNL d   1       2.005  -1.265  -1.724  0.00  0.00     0.030 A 
ENDBRANCH   8  13
ENDBRANCH   1   8
BRANCH   1  19
ATOM     19  C   UNL d   1       5.133   0.998   0.997  0.00  0.00     0.198 C 
BRANCH  19  20
ATOM     20  O   UNL d   1       4.053   1.925   1.129  0.00  0.00    -0.393 OA
ATOM     21  C   UNL d   1       4.189   2.821   2.233  0.00  0.00     0.201 C 
ENDBRANCH  19  20
ENDBRANCH   1  19
BRANCH   6  22
ATOM     22  C   UNL d   1       5.681  -1.743  -3.989  0.00  0.00     0.256 C 
BRANCH  22  23
ATOM     23  C   UNL d   1       5.894  -0.841  -5.207  0.00  0.00     0.183 C 
BRANCH  23  24
ATOM     24  N   UNL d   1       5.820  -1.646  -6.429  0.00  0.00    -0.224 N 
ATOM     25  N   UNL d   1       6.890  -2.284  -7.068  0.00  0.00    -0.222 N 
ATOM     26  N   UNL d   1       6.474  -2.878  -8.069  0.00  0.00    -0.222 N 
ATOM     27  HN  UNL d   1       7.861  -2.261  -6.756  1.00  0.00     0.210 HD
ATOM     28  N   UNL d   1       5.093  -2.677  -8.186  0.00  0.00    -0.226 N 
ATOM     29  HN  UNL d   1       7.046  -3.429  -8.708  1.00  0.00     0.210 HD
ATOM     30  C   UNL d   1       4.706  -1.903  -7.149  0.00  0.00     0.360 A 
ATOM     31  O   UNL d   1       3.577  -1.514  -6.910  0.00  0.00    -0.243 OA
BRANCH  28  32
ATOM     32  C   UNL d   1       4.226  -3.209  -9.240  0.00  0.00     0.151 C 
ATOM     33  C   UNL d   1       4.163  -2.213 -10.400  0.00  0.00     0.029 C 
ENDBRANCH  28  32
ENDBRANCH  23  24
ENDBRANCH  22  23
ENDBRANCH   6  22
TORSDOF 9
