REMARK  4 active torsions:
REMARK  status: ('A' for Active; 'I' for Inactive)
REMARK    1  A    between atoms: C_2  and  C_3 
REMARK    2  A    between atoms: C_17  and  C_19 
REMARK    3  A    between atoms: C_19  and  O_21 
REMARK    4  A    between atoms: O_21  and  C_22 
ROOT
ATOM      1  C   UNL d   1      -2.621   4.537  -0.665  0.00  0.00     0.014 C 
ATOM      2  C   UNL d   1      -2.426   4.496  -2.183  0.00  0.00     0.018 C 
ATOM      3  C   UNL d   1      -1.682   5.753  -2.639  0.00  0.00     0.029 C 
ATOM      4  C   UNL d   1      -0.322   5.799  -1.953  0.00  0.00     0.236 C 
ATOM      5  C   UNL d   1      -1.308   4.805   0.052  0.00  0.00     0.251 C 
ATOM      6  C   UNL d   1      -0.488   3.539  -0.001  0.00  0.00     0.057 A 
ATOM      7  C   UNL d   1       0.850   3.496  -0.073  0.00  0.00    -0.019 A 
ATOM      8  C   UNL d   1       1.202   2.093  -0.113  0.00  0.00    -0.001 A 
ATOM      9  C   UNL d   1       2.431   1.429  -0.174  0.00  0.00     0.014 A 
ATOM     10  C   UNL d   1       2.401   0.057  -0.200  0.00  0.00     0.001 A 
ATOM     11  C   UNL d   1       1.211  -0.652  -0.168  0.00  0.00     0.002 A 
ATOM     12  C   UNL d   1      -0.020  -0.025  -0.107  0.00  0.00     0.031 A 
ATOM     13  C   UNL d   1      -0.026   1.369  -0.078  0.00  0.00     0.051 A 
ATOM     14  N   UNL d   1      -1.035   2.276  -0.012  0.00  0.00    -0.307 N 
ATOM     15  C   UNL d   1      -2.435   2.136   0.041  0.00  0.00     0.112 C 
ATOM     16  C   UNL d   1      -3.191   3.202  -0.252  0.00  0.00     0.022 C 
ATOM     17  C   UNL d   1       1.692   4.741  -0.092  0.00  0.00     0.069 C 
ATOM     18  C   UNL d   1       0.816   5.967   0.163  0.00  0.00     0.240 C 
ATOM     19  N   UNL d   1      -0.501   5.927  -0.488  0.00  0.00    -0.060 N 
ATOM     20  H   UNL d   1      -0.994   6.806  -0.293  0.00  0.00     0.280 HD
ENDROOT
BRANCH  15  21
ATOM     21  C   UNL d   1      -3.052   0.850   0.410  0.00  0.00     0.310 C 
ATOM     22  O   UNL d   1      -3.083   0.503   1.574  0.00  0.00    -0.258 OA
BRANCH  21  23
ATOM     23  O   UNL d   1      -3.583   0.059  -0.543  0.00  0.00    -0.317 OA
BRANCH  23  24
ATOM     24  C   UNL d   1      -4.174  -1.193  -0.107  0.00  0.00     0.175 C 
ATOM     25  C   UNL d   1      -4.720  -1.949  -1.320  0.00  0.00     0.034 C 
ENDBRANCH  23  24
ENDBRANCH  21  23
ENDBRANCH  15  21
BRANCH   1  26
ATOM     26  C   UNL d   1      -3.621   5.641  -0.316  0.00  0.00     0.011 C 
ATOM     27  C   UNL d   1      -4.945   5.377  -1.036  0.00  0.00     0.006 C 
ENDBRANCH   1  26
TORSDOF 4
