REMARK  10 active torsions:
REMARK  status: ('A' for Active; 'I' for Inactive)
REMARK    1  A    between atoms: C_3  and  C_25 
REMARK    2  A    between atoms: C_4  and  C_16 
REMARK    3  A    between atoms: C_5  and  C_10 
REMARK    4  A    between atoms: C_10  and  O_12 
REMARK    5  A    between atoms: O_12  and  C_13 
REMARK    6  A    between atoms: C_20  and  N_22 
REMARK    7  A    between atoms: C_25  and  O_27 
REMARK    8  A    between atoms: O_27  and  C_28 
REMARK    9  A    between atoms: C_28  and  C_29 
REMARK   10  A    between atoms: C_29  and  O_30 
ROOT
ATOM      1  C   UNL d   1       2.327  -0.239   0.103  0.00  0.00     0.064 C 
ATOM      2  C   UNL d   1       2.351   1.267   0.051  0.00  0.00    -0.003 C 
ATOM      3  C   UNL d   1       1.194   1.951   0.065  0.00  0.00     0.144 C 
ATOM      4  C   UNL d   1       1.170   3.452   0.018  0.00  0.00     0.079 C 
ATOM      5  C   UNL d   1       2.524   4.016   0.342  0.00  0.00     0.049 C 
ATOM      6  C   UNL d   1       3.627   3.251   0.306  0.00  0.00     0.018 C 
ATOM      7  N   UNL d   1       3.551   1.922  -0.011  0.00  0.00    -0.366 N 
ATOM      8  HN  UNL d   1       4.392   1.418  -0.293  1.00  0.00     0.165 HD
ATOM      9  C   UNL d   1       4.966   3.864   0.630  0.00  0.00     0.069 C 
ENDROOT
BRANCH   4  10
ATOM     10  C   UNL d   1       0.764   3.899  -1.363  0.00  0.00    -0.046 A 
ATOM     11  C   UNL d   1      -0.374   4.664  -1.535  0.00  0.00     0.043 A 
ATOM     12  C   UNL d   1      -0.744   5.078  -2.802  0.00  0.00     0.103 A 
ATOM     13  C   UNL d   1       0.019   4.718  -3.897  0.00  0.00     0.036 A 
ATOM     14  C   UNL d   1       1.155   3.949  -3.725  0.00  0.00     0.003 A 
ATOM     15  C   UNL d   1       1.527   3.539  -2.458  0.00  0.00     0.008 A 
BRANCH  12  16
ATOM     16  N   UNL d   1      -1.960   5.902  -2.985  0.00  0.00    -0.116 N 
ATOM     17  O   UNL d   1      -2.288   6.263  -4.101  0.00  0.00    -0.532 OA
ATOM     18  O   UNL d   1      -2.632   6.219  -2.021  0.00  0.00    -0.532 OA
ENDBRANCH  12  16
ENDBRANCH   4  10
BRANCH   3  19
ATOM     19  C   UNL d   1      -0.028   1.241   0.132  0.00  0.00     0.269 C 
ATOM     20  O   UNL d   1      -0.616   1.141   1.193  0.00  0.00    -0.264 OA
BRANCH  19  21
ATOM     21  O   UNL d   1      -0.538   0.671  -0.979  0.00  0.00    -0.319 OA
BRANCH  21  22
ATOM     22  C   UNL d   1      -1.772  -0.036  -0.838  0.00  0.00     0.205 C 
BRANCH  22  23
ATOM     23  C   UNL d   1      -2.191  -0.609  -2.193  0.00  0.00     0.193 C 
BRANCH  23  24
ATOM     24  O   UNL d   1      -1.239  -1.590  -2.610  0.00  0.00    -0.394 OA
ATOM     25  C   UNL d   1      -1.538  -2.191  -3.871  0.00  0.00     0.201 C 
ENDBRANCH  23  24
ENDBRANCH  22  23
ENDBRANCH  21  22
ENDBRANCH  19  21
ENDBRANCH   3  19
BRANCH   5  26
ATOM     26  C   UNL d   1       2.640   5.383   0.688  0.00  0.00     0.292 C 
ATOM     27  O   UNL d   1       2.386   5.747   1.821  0.00  0.00    -0.259 OA
BRANCH  26  28
ATOM     28  O   UNL d   1       3.031   6.282  -0.239  0.00  0.00    -0.313 OA
BRANCH  28  29
ATOM     29  C   UNL d   1       3.126   7.645   0.179  0.00  0.00     0.124 C 
ATOM     30  C   UNL d   1       4.537   7.920   0.705  0.00  0.00     0.040 C 
ATOM     31  C   UNL d   1       2.836   8.565  -1.008  0.00  0.00     0.040 C 
ENDBRANCH  28  29
ENDBRANCH  26  28
ENDBRANCH   5  26
TORSDOF 10
