REMARK  6 active torsions:
REMARK  status: ('A' for Active; 'I' for Inactive)
REMARK    1  A    between atoms: N1_3  and  C1*_10 
REMARK    2  A    between atoms: C4_8  and  N4_9 
REMARK    3  A    between atoms: C2*_11  and  O2*_18 
REMARK    4  A    between atoms: C3*_12  and  O3*_17 
REMARK    5  A    between atoms: C4*_13  and  C5*_15 
REMARK    6  A    between atoms: C5*_15  and  O5*_16 
ROOT
ATOM      1  C1*  C1 d   1       1.715   1.800   1.375  0.00  0.00     0.263 C 
ATOM      2  C2*  C1 d   1       0.379   2.469   1.787  0.00  0.00     0.198 C 
ATOM      3  C3*  C1 d   1      -0.663   1.593   1.050  0.00  0.00     0.182 C 
ATOM      4  C4*  C1 d   1       0.141   0.915  -0.076  0.00  0.00     0.179 C 
ATOM      5  O4*  C1 d   1       1.488   1.412   0.003  0.00  0.00    -0.353 OA
ENDROOT
BRANCH   1   6
ATOM      6  N1   C1 d   1       2.823   2.754   1.464  0.00  0.00    -0.280 N 
ATOM      7  C6   C1 d   1       3.136   3.531   0.390  0.00  0.00     0.102 A 
ATOM      8  C5   C1 d   1       4.162   4.410   0.484  0.00  0.00     0.059 A 
ATOM      9  C4   C1 d   1       4.879   4.495   1.696  0.00  0.00     0.082 A 
ATOM     10  N3   C1 d   1       4.537   3.719   2.716  0.00  0.00    -0.299 N 
ATOM     11  C2   C1 d   1       3.522   2.863   2.609  0.00  0.00     0.329 A 
ATOM     12  H3   C1 d   1       5.058   3.777   3.591  1.00  0.00     0.171 HD
ATOM     13  O2   C1 d   1       3.224   2.163   3.562  0.00  0.00    -0.246 OA
BRANCH   9  14
ATOM     14  N4   C1 d   1       5.925   5.380   1.820  0.00  0.00    -0.288 NA
ATOM     15  H41  C1 d   1       6.627   5.163   1.142  0.00  0.00     0.125 HD
ATOM     16  H42  C1 d   1       6.416   5.436   2.655  0.00  0.00     0.125 HD
ENDBRANCH   9  14
ENDBRANCH   1   6
BRANCH   2  17
ATOM     17  O2*  C1 d   1       0.323   3.821   1.329  0.00  0.00    -0.388 OA
ATOM     18  H2*  C1 d   1      -0.494   4.282   1.563  0.00  0.00     0.210 HD
ENDBRANCH   2  17
BRANCH   4  19
ATOM     19  C5*  C1 d   1      -0.464   1.265  -1.436  0.00  0.00     0.198 C 
BRANCH  19  20
ATOM     20  O5*  C1 d   1       0.223   0.546  -2.463  0.00  0.00    -0.398 OA
ATOM     21  H5*  C1 d   1      -0.110   0.720  -3.354  0.00  0.00     0.209 HD
ENDBRANCH  19  20
ENDBRANCH   4  19
BRANCH   3  22
ATOM     22  O3*  C1 d   1      -1.208   0.612   1.936  0.00  0.00    -0.390 OA
ATOM     23  H3*  C1 d   1      -1.824  -0.001   1.512  0.00  0.00     0.210 HD
ENDBRANCH   3  22
TORSDOF 6
