REMARK  6 active torsions:
REMARK  status: ('A' for Active; 'I' for Inactive)
REMARK    1  A    between atoms: C_1  and  C_2 
REMARK    2  A    between atoms: C_1  and  C_3 
REMARK    3  A    between atoms: C_2  and  N_12 
REMARK    4  A    between atoms: C_3  and  O_4 
REMARK    5  A    between atoms: C_3  and  P_5 
REMARK    6  A    between atoms: C_3  and  P_7 
ROOT
ATOM      1  C   UNL d   1      -1.609   3.600  -2.252  0.00  0.00     0.286 C 
ENDROOT
BRANCH   1   2
ATOM      2  C   UNL d   1      -0.793   3.056  -1.078  0.00  0.00     0.095 C 
BRANCH   2   3
ATOM      3  C   UNL d   1      -0.795   1.527  -1.120  0.00  0.00     0.234 C 
BRANCH   3   4
ATOM      4  N   UNL d   1      -0.025   1.014   0.027  0.00  0.00    -0.079 N 
ATOM      5  H   UNL d   1       0.002  -0.004   0.002  0.00  0.00     0.274 HD
ATOM      6  H   UNL d   1       0.925   1.379   0.001  0.00  0.00     0.274 HD
ATOM      7  H   UNL d   1      -0.476   1.316   0.899  0.00  0.00     0.274 HD
ENDBRANCH   3   4
ENDBRANCH   2   3
ENDBRANCH   1   2
BRANCH   1   8
ATOM      8  O   UNL d   1      -1.030   3.156  -3.481  0.00  0.00    -0.365 OA
ATOM      9  H   UNL d   1      -0.117   3.444  -3.611  0.00  0.00     0.212 HD
ENDBRANCH   1   8
BRANCH   1  10
ATOM     10  P   UNL d   1      -3.324   2.992  -2.134  0.00  0.00     0.310 P 
ATOM     11  O   UNL d   1      -4.114   3.518  -3.269  0.00  0.00    -0.637 OA
ATOM     12  O   UNL d   1      -3.976   3.491  -0.749  0.00  0.00    -0.637 OA
ATOM     13  O   UNL d   1      -3.326   1.382  -2.178  0.00  0.00    -0.637 OA
ENDBRANCH   1  10
BRANCH   1  14
ATOM     14  P   UNL d   1      -1.607   5.422  -2.202  0.00  0.00     0.310 P 
ATOM     15  O   UNL d   1      -2.207   5.882  -0.929  0.00  0.00    -0.637 OA
ATOM     16  O   UNL d   1      -2.466   5.995  -3.437  0.00  0.00    -0.637 OA
ATOM     17  O   UNL d   1      -0.093   5.960  -2.306  0.00  0.00    -0.637 OA
ENDBRANCH   1  14
TORSDOF 6
