REMARK  5 active torsions:
REMARK  status: ('A' for Active; 'I' for Inactive)
REMARK    1  A    between atoms: C_2  and  C_3 
REMARK    2  A    between atoms: C_3  and  C_4 
REMARK    3  A    between atoms: C_4  and  C_5 
REMARK    4  A    between atoms: C_4  and  C_8 
REMARK    5  A    between atoms: C_5  and  C_6 
ROOT
ATOM      1  C   UNL d   1       0.002  -0.004   0.002  0.00  0.00     0.087 C 
ENDROOT
BRANCH   1   2
ATOM      2  C   UNL d   1      -1.433  -0.534   0.013  0.00  0.00     0.015 C 
BRANCH   2   3
ATOM      3  C   UNL d   1      -2.110  -0.145   1.329  0.00  0.00    -0.004 C 
ATOM      4  C   UNL d   1      -3.546  -0.675   1.340  0.00  0.00     0.005 C 
ENDBRANCH   2   3
ENDBRANCH   1   2
BRANCH   1   5
ATOM      5  C   UNL d   1       0.718  -0.497  -1.257  0.00  0.00     0.015 C 
BRANCH   5   6
ATOM      6  C   UNL d   1       2.187  -0.073  -1.207  0.00  0.00    -0.004 C 
ATOM      7  C   UNL d   1       2.904  -0.566  -2.466  0.00  0.00     0.005 C 
ENDBRANCH   5   6
ENDBRANCH   1   5
BRANCH   1   8
ATOM      8  C   UNL d   1      -0.018   1.503   0.010  0.00  0.00     0.177 C 
ATOM      9  O   UNL d   1      -1.073   2.093   0.018  0.00  0.00    -0.648 OA
ATOM     10  O   UNL d   1       1.135   2.190   0.003  0.00  0.00    -0.648 OA
ENDBRANCH   1   8
TORSDOF 5
