REMARK  9 active torsions:
REMARK  status: ('A' for Active; 'I' for Inactive)
REMARK    1  A    between atoms: C_3  and  C_34 
REMARK    2  A    between atoms: C_4  and  C_25 
REMARK    3  A    between atoms: C_5  and  C_10 
REMARK    4  A    between atoms: C_10  and  O_12 
REMARK    5  A    between atoms: O_12  and  C_13 
REMARK    6  A    between atoms: C_18  and  C_19 
REMARK    7  A    between atoms: C_18  and  N_38 
REMARK    8  A    between atoms: C_29  and  N_31 
REMARK    9  A    between atoms: C_34  and  O_36 
ROOT
ATOM      1  C   UNL d   1      -6.001   2.050   8.063  0.00  0.00     0.064 C 
ATOM      2  C   UNL d   1      -5.073   1.883   6.888  0.00  0.00    -0.003 C 
ATOM      3  C   UNL d   1      -5.167   2.724   5.844  0.00  0.00     0.144 C 
ATOM      4  C   UNL d   1      -4.252   2.603   4.656  0.00  0.00     0.079 C 
ATOM      5  C   UNL d   1      -3.582   1.259   4.638  0.00  0.00     0.049 C 
ATOM      6  C   UNL d   1      -3.555   0.474   5.729  0.00  0.00     0.018 C 
ATOM      7  N   UNL d   1      -4.145   0.877   6.896  0.00  0.00    -0.366 N 
ATOM      8  HN  UNL d   1      -3.893   0.426   7.776  1.00  0.00     0.165 HD
ATOM      9  C   UNL d   1      -2.869  -0.866   5.666  0.00  0.00     0.069 C 
ENDROOT
BRANCH   5  10
ATOM     10  C   UNL d   1      -2.964   0.809   3.448  0.00  0.00     0.292 C 
ATOM     11  O   UNL d   1      -3.640   0.340   2.552  0.00  0.00    -0.259 OA
BRANCH  10  12
ATOM     12  O   UNL d   1      -1.625   0.901   3.306  0.00  0.00    -0.310 OA
BRANCH  12  13
ATOM     13  C   UNL d   1      -1.069   0.428   2.078  0.00  0.00     0.158 C 
ATOM     14  C   UNL d   1       0.198   1.222   1.751  0.00  0.00     0.267 C 
ATOM     15  N   UNL d   1       0.761   0.725   0.478  0.00  0.00    -0.065 N 
ATOM     16  C   UNL d   1       1.174  -0.688   0.623  0.00  0.00     0.235 C 
ATOM     17  H   UNL d   1       0.042   0.788  -0.252  0.00  0.00     0.280 HD
ATOM     18  C   UNL d   1      -0.064  -1.539   0.916  0.00  0.00     0.030 C 
ATOM     19  C   UNL d   1      -0.714  -1.056   2.216  0.00  0.00     0.036 C 
BRANCH  15  20
ATOM     20  C   UNL d   1       1.920   1.551   0.083  0.00  0.00     0.273 C 
BRANCH  20  21
ATOM     21  C   UNL d   1       2.333   1.170  -1.316  0.00  0.00    -0.033 A 
ATOM     22  C   UNL d   1       1.766   1.810  -2.402  0.00  0.00     0.009 A 
ATOM     23  C   UNL d   1       2.144   1.461  -3.685  0.00  0.00     0.001 A 
ATOM     24  C   UNL d   1       3.090   0.472  -3.882  0.00  0.00     0.000 A 
ATOM     25  C   UNL d   1       3.656  -0.169  -2.796  0.00  0.00     0.001 A 
ATOM     26  C   UNL d   1       3.282   0.184  -1.513  0.00  0.00     0.009 A 
ENDBRANCH  20  21
ENDBRANCH  15  20
ENDBRANCH  12  13
ENDBRANCH  10  12
ENDBRANCH   5  10
BRANCH   4  27
ATOM     27  C   UNL d   1      -3.201   3.681   4.714  0.00  0.00    -0.046 A 
ATOM     28  C   UNL d   1      -3.115   4.618   3.702  0.00  0.00     0.043 A 
ATOM     29  C   UNL d   1      -2.153   5.610   3.757  0.00  0.00     0.103 A 
ATOM     30  C   UNL d   1      -1.272   5.659   4.821  0.00  0.00     0.036 A 
ATOM     31  C   UNL d   1      -1.355   4.719   5.831  0.00  0.00     0.003 A 
ATOM     32  C   UNL d   1      -2.319   3.730   5.778  0.00  0.00     0.008 A 
BRANCH  29  33
ATOM     33  N   UNL d   1      -2.064   6.616   2.675  0.00  0.00    -0.116 N 
ATOM     34  O   UNL d   1      -1.215   7.488   2.723  0.00  0.00    -0.532 OA
ATOM     35  O   UNL d   1      -2.841   6.572   1.738  0.00  0.00    -0.532 OA
ENDBRANCH  29  33
ENDBRANCH   4  27
BRANCH   3  36
ATOM     36  C   UNL d   1      -6.143   3.747   5.865  0.00  0.00     0.269 C 
ATOM     37  O   UNL d   1      -7.194   3.598   5.271  0.00  0.00    -0.264 OA
BRANCH  36  38
ATOM     38  O   UNL d   1      -5.908   4.889   6.544  0.00  0.00    -0.326 OA
ATOM     39  C   UNL d   1      -6.938   5.880   6.523  0.00  0.00     0.213 C 
ENDBRANCH  36  38
ENDBRANCH   3  36
TORSDOF 9
