REMARK  3 active torsions:
REMARK  status: ('A' for Active; 'I' for Inactive)
REMARK    1  A    between atoms: N_2  and  C_4 
REMARK    2  A    between atoms: C_7  and  N_16 
REMARK    3  A    between atoms: C_10  and  N_13 
ROOT
ATOM      1  C   UNL d   1      -2.062   1.770   1.193  0.00  0.00     0.708 A 
ATOM      2  N   UNL d   1      -2.685   2.193   2.289  0.00  0.00    -0.021 N 
ATOM      3  HN  UNL d   1      -2.156   2.358   3.145  1.00  0.00     0.203 HD
ATOM      4  C   UNL d   1      -3.998   2.402   2.268  0.00  0.00     0.708 A 
ATOM      5  N   UNL d   1      -4.689   2.177   1.155  0.00  0.00    -0.021 N 
ATOM      6  HN  UNL d   1      -5.697   2.334   1.140  1.00  0.00     0.203 HD
ATOM      7  C   UNL d   1      -4.067   1.749   0.061  0.00  0.00     0.708 A 
ATOM      8  N   UNL d   1      -2.753   1.545   0.080  0.00  0.00    -0.021 N 
ATOM      9  HN  UNL d   1      -2.276   1.216  -0.759  1.00  0.00     0.203 HD
ENDROOT
BRANCH   1  10
ATOM     10  N   UNL d   1      -0.698   1.558   1.213  0.00  0.00    -0.225 N 
ATOM     11  C   UNL d   1      -0.013   1.086   0.008  0.00  0.00     0.168 C 
ATOM     12  C   UNL d   1       0.063   1.806   2.440  0.00  0.00     0.168 C 
ENDBRANCH   1  10
BRANCH   7  13
ATOM     13  N   UNL d   1      -4.785   1.516  -1.095  0.00  0.00    -0.225 N 
ATOM     14  C   UNL d   1      -4.099   1.043  -2.300  0.00  0.00     0.168 C 
ATOM     15  C   UNL d   1      -6.232   1.740  -1.116  0.00  0.00     0.168 C 
ENDBRANCH   7  13
BRANCH   4  16
ATOM     16  N   UNL d   1      -4.644   2.847   3.403  0.00  0.00    -0.225 N 
ATOM     17  C   UNL d   1      -6.091   3.071   3.382  0.00  0.00     0.168 C 
ATOM     18  C   UNL d   1      -3.882   3.095   4.630  0.00  0.00     0.168 C 
ENDBRANCH   4  16
TORSDOF 3
