REMARK  5 active torsions:
REMARK  status: ('A' for Active; 'I' for Inactive)
REMARK    1  A    between atoms: C1*_10  and  N_9 
REMARK    2  A    between atoms: C2*_11  and  O2*_20 
REMARK    3  A    between atoms: C3*_12  and  O3*_18 
REMARK    4  A    between atoms: C4*_13  and  C5*_15 
REMARK    5  A    between atoms: C5*_15  and  O5*_16 
ROOT
ATOM      1  C1* UNL d   1      -0.658   0.632   0.318  0.00  0.00     0.265 C 
ATOM      2  C2* UNL d   1      -1.234  -0.263   1.404  0.00  0.00     0.198 C 
ATOM      3  C3* UNL d   1      -2.401  -0.934   0.745  0.00  0.00     0.182 C 
ATOM      4  C4* UNL d   1      -2.602  -0.088  -0.500  0.00  0.00     0.179 C 
ATOM      5  O4* UNL d   1      -1.354   0.420  -0.887  0.00  0.00    -0.353 OA
ENDROOT
BRANCH   1   6
ATOM      6  N   UNL d   1       0.771   0.377   0.136  0.00  0.00    -0.266 N 
ATOM      7  C   UNL d   1       1.190  -0.799  -0.409  0.00  0.00     0.192 A 
ATOM      8  N   UNL d   1       2.514  -1.047  -0.571  0.00  0.00    -0.326 N 
ATOM      9  C   UNL d   1       3.428  -0.124  -0.188  0.00  0.00     0.197 A 
ATOM     10  HN  UNL d   1       2.821  -1.929  -0.981  1.00  0.00     0.169 HD
ATOM     11  N   UNL d   1       3.020   1.048   0.359  0.00  0.00    -0.282 N 
ATOM     12  N   UNL d   1       4.816  -0.384  -0.358  0.00  0.00    -0.063 NA
ATOM     13  C   UNL d   1       1.698   1.302   0.524  0.00  0.00     0.332 A 
ATOM     14  HN  UNL d   1       3.711   1.741   0.648  1.00  0.00     0.173 HD
ATOM     15  O   UNL d   1       1.338   2.396   1.036  0.00  0.00    -0.246 OA
ENDBRANCH   1   6
BRANCH   2  16
ATOM     16  O2* UNL d   1      -1.683   0.527   2.462  0.00  0.00    -0.388 OA
ATOM     17  H2* UNL d   1      -2.043  -0.032   3.141  1.00  0.00     0.210 HD
ENDBRANCH   2  16
BRANCH   4  18
ATOM     18  C5* UNL d   1      -3.260  -0.849  -1.642  0.00  0.00     0.198 C 
BRANCH  18  19
ATOM     19  O5* UNL d   1      -3.551   0.026  -2.688  0.00  0.00    -0.398 OA
ATOM     20  H5* UNL d   1      -3.962  -0.448  -3.401  1.00  0.00     0.209 HD
ENDBRANCH  18  19
ENDBRANCH   4  18
BRANCH   3  21
ATOM     21  O3* UNL d   1      -2.032  -2.240   0.410  0.00  0.00    -0.390 OA
ATOM     22  H3* UNL d   1      -2.772  -2.665  -0.007  1.00  0.00     0.210 HD
ENDBRANCH   3  21
TORSDOF 5
