REMARK  2 active torsions:
REMARK  status: ('A' for Active; 'I' for Inactive)
REMARK    1  A    between atoms: C_6  and  O_7 
REMARK    2  A    between atoms: C_24  and  O_25 
ROOT
ATOM      1  C   UNL d   1      -2.153   0.118   0.236  0.00  0.00     0.019 C 
ATOM      2  C   UNL d   1      -0.948  -0.062  -0.688  0.00  0.00    -0.001 C 
ATOM      3  C   UNL d   1      -0.821  -1.547  -1.108  0.00  0.00     0.102 A 
ATOM      4  C   UNL d   1      -1.606  -2.057  -2.272  0.00  0.00     0.215 A 
ATOM      5  O   UNL d   1      -0.251  -1.691  -2.392  0.00  0.00    -0.361 OA
ATOM      6  C   UNL d   1      -2.469  -1.012  -2.947  0.00  0.00     0.091 C 
ATOM      7  C   UNL d   1      -2.269   0.312  -2.784  0.00  0.00     0.055 C 
ATOM      8  C   UNL d   1      -3.139   1.274  -3.409  0.00  0.00     0.097 C 
ATOM      9  N   UNL d   1      -3.838   2.048  -3.911  0.00  0.00    -0.192 NA
ATOM     10  C   UNL d   1      -1.145   0.825  -1.927  0.00  0.00     0.065 C 
ATOM     11  C   UNL d   1      -0.114  -2.541  -0.180  0.00  0.00     0.042 C 
ATOM     12  C   UNL d   1       0.085  -2.018   1.248  0.00  0.00     0.008 C 
ATOM     13  C   UNL d   1       0.497  -0.537   1.359  0.00  0.00    -0.005 C 
ATOM     14  C   UNL d   1       0.351   0.277   0.054  0.00  0.00     0.001 C 
ATOM     15  C   UNL d   1       0.615   1.775   0.298  0.00  0.00     0.007 C 
ATOM     16  C   UNL d   1       2.007   1.984   0.934  0.00  0.00     0.012 C 
ATOM     17  C   UNL d   1       2.148   1.141   2.206  0.00  0.00    -0.014 C 
ATOM     18  C   UNL d   1       1.156   1.636   3.273  0.00  0.00     0.018 C 
ATOM     19  C   UNL d   1       1.920  -0.315   1.851  0.00  0.00     0.001 C 
ATOM     20  C   UNL d   1       2.444  -1.101   3.032  0.00  0.00     0.008 C 
ATOM     21  C   UNL d   1       3.632  -0.264   3.514  0.00  0.00     0.033 C 
ATOM     22  C   UNL d   1       3.561   1.074   2.766  0.00  0.00     0.126 C 
ENDROOT
BRANCH   6  23
ATOM     23  O   UNL d   1      -3.511  -1.461  -3.753  0.00  0.00    -0.361 OA
ATOM     24  HO  UNL d   1      -4.053  -0.806  -4.177  1.00  0.00     0.217 HD
ENDBRANCH   6  23
BRANCH  22  25
ATOM     25  O   UNL d   1       3.848   2.139   3.625  0.00  0.00    -0.395 OA
ATOM     26  HO  UNL d   1       3.804   2.967   3.162  1.00  0.00     0.210 HD
ENDBRANCH  22  25
TORSDOF 2
