REMARK  9 active torsions:
REMARK  status: ('A' for Active; 'I' for Inactive)
REMARK    1  A    between atoms: C_4  and  C_33 
REMARK    2  A    between atoms: C_7  and  N_12 
REMARK       I    between atoms: N_12  and  C_14 
REMARK    3  A    between atoms: C_14  and  C_16 
REMARK    4  A    between atoms: C_19  and  O_20 
REMARK    5  A    between atoms: O_20  and  C_21 
REMARK    6  A    between atoms: C_21  and  C_22 
REMARK    7  A    between atoms: C_22  and  C_23 
REMARK    8  A    between atoms: C_23  and  C_24 
REMARK    9  A    between atoms: C_24  and  C_25 
ROOT
ATOM      1  N   UNL d   1      -2.311  -1.400  -1.511  0.00  0.00    -0.320 N 
ATOM      2  HN  UNL d   1      -1.893  -1.877  -2.310  1.00  0.00     0.169 HD
ATOM      3  C   UNL d   1      -1.417  -0.826  -0.548  0.00  0.00     0.256 C 
ATOM      4  O   UNL d   1      -1.835  -0.522   0.603  0.00  0.00    -0.267 OA
ENDROOT
BRANCH   1   5
ATOM      5  C   UNL d   1      -3.742  -1.361  -1.444  0.00  0.00     0.070 A 
ATOM      6  C   UNL d   1      -4.444  -0.214  -1.018  0.00  0.00     0.117 A 
ATOM      7  O   UNL d   1      -3.788   0.890  -0.669  0.00  0.00    -0.303 OA
ATOM      8  C   UNL d   1      -5.859  -0.230  -0.984  0.00  0.00     0.050 A 
ATOM      9  C   UNL d   1      -4.400   1.998  -0.258  0.00  0.00     0.126 A 
ATOM     10  C   UNL d   1      -5.796   2.044  -0.185  0.00  0.00     0.097 A 
ATOM     11  C   UNL d   1      -6.532   0.920  -0.552  0.00  0.00     0.187 A 
ATOM     12  O   UNL d   1      -7.791   0.956  -0.495  0.00  0.00    -0.287 OA
ATOM     13  C   UNL d   1      -6.554  -1.374  -1.397  0.00  0.00     0.018 A 
ATOM     14  C   UNL d   1      -5.854  -2.494  -1.848  0.00  0.00     0.003 A 
ATOM     15  C   UNL d   1      -4.457  -2.483  -1.877  0.00  0.00     0.032 A 
BRANCH   9  16
ATOM     16  C   UNL d   1      -3.598   3.168   0.118  0.00  0.00     0.165 A 
ATOM     17  N   UNL d   1      -2.254   3.203   0.081  0.00  0.00    -0.268 N 
ATOM     18  N   UNL d   1      -1.940   4.420   0.493  0.00  0.00    -0.007 NA
ATOM     19  HN  UNL d   1      -1.618   2.458  -0.202  1.00  0.00     0.185 HD
ATOM     20  N   UNL d   1      -3.043   5.098   0.770  0.00  0.00    -0.007 NA
ATOM     21  N   UNL d   1      -4.103   4.339   0.545  0.00  0.00    -0.268 N 
ATOM     22  HN  UNL d   1      -5.085   4.587   0.668  1.00  0.00     0.185 HD
ENDBRANCH   9  16
ENDBRANCH   1   5
BRANCH   3  23
ATOM     23  C   UNL d   1       0.004  -0.634  -0.886  0.00  0.00     0.032 A 
ATOM     24  C   UNL d   1       0.888  -0.082   0.052  0.00  0.00     0.020 A 
ATOM     25  C   UNL d   1       2.234   0.105  -0.272  0.00  0.00     0.038 A 
ATOM     26  C   UNL d   1       2.715  -0.260  -1.540  0.00  0.00     0.068 A 
ATOM     27  C   UNL d   1       1.832  -0.807  -2.476  0.00  0.00     0.038 A 
ATOM     28  C   UNL d   1       0.485  -0.993  -2.152  0.00  0.00     0.020 A 
BRANCH  26  29
ATOM     29  O   UNL d   1       4.056  -0.085  -1.895  0.00  0.00    -0.351 OA
BRANCH  29  30
ATOM     30  C   UNL d   1       5.045   0.388  -0.987  0.00  0.00     0.175 C 
BRANCH  30  31
ATOM     31  C   UNL d   1       5.838  -0.775  -0.413  0.00  0.00     0.027 C 
BRANCH  31  32
ATOM     32  C   UNL d   1       4.992  -1.568   0.570  0.00  0.00     0.007 C 
BRANCH  32  33
ATOM     33  C   UNL d   1       5.794  -2.719   1.158  0.00  0.00     0.038 C 
BRANCH  33  34
ATOM     34  C   UNL d   1       6.747  -2.234   2.198  0.00  0.00    -0.058 A 
ATOM     35  C   UNL d   1       6.301  -1.993   3.503  0.00  0.00     0.007 A 
ATOM     36  C   UNL d   1       7.192  -1.525   4.473  0.00  0.00     0.001 A 
ATOM     37  C   UNL d   1       8.531  -1.296   4.140  0.00  0.00     0.000 A 
ATOM     38  C   UNL d   1       8.978  -1.533   2.837  0.00  0.00     0.001 A 
ATOM     39  C   UNL d   1       8.087  -2.000   1.866  0.00  0.00     0.007 A 
ENDBRANCH  33  34
ENDBRANCH  32  33
ENDBRANCH  31  32
ENDBRANCH  30  31
ENDBRANCH  29  30
ENDBRANCH  26  29
ENDBRANCH   3  23
TORSDOF 9
