REMARK  0 active torsions:
REMARK  status: ('A' for Active; 'I' for Inactive)
ROOT
ATOM      1  C   UNL d   1      -3.406  -1.052   0.205  0.00  0.00     0.052 C 
ATOM      2  C   UNL d   1      -2.053  -0.432   0.164  0.00  0.00    -0.007 A 
ATOM      3  C   UNL d   1      -1.935   0.876   0.410  0.00  0.00     0.066 A 
ATOM      4  C   UNL d   1      -0.624   1.546   0.384  0.00  0.00     0.183 A 
ATOM      5  O   UNL d   1      -0.553   2.782   0.622  0.00  0.00    -0.288 OA
ATOM      6  C   UNL d   1       0.591   0.763   0.080  0.00  0.00     0.028 A 
ATOM      7  C   UNL d   1       1.853   1.373   0.048  0.00  0.00     0.016 A 
ATOM      8  C   UNL d   1       2.992   0.618  -0.241  0.00  0.00     0.001 A 
ATOM      9  C   UNL d   1       2.877  -0.751  -0.500  0.00  0.00     0.001 A 
ATOM     10  C   UNL d   1       1.623  -1.367  -0.470  0.00  0.00     0.016 A 
ATOM     11  C   UNL d   1       0.475  -0.616  -0.181  0.00  0.00     0.029 A 
ATOM     12  C   UNL d   1      -0.859  -1.253  -0.145  0.00  0.00     0.189 A 
ATOM     13  O   UNL d   1      -0.982  -2.487  -0.376  0.00  0.00    -0.287 OA
ENDROOT
TORSDOF 0
