REMARK  10 active torsions:
REMARK  status: ('A' for Active; 'I' for Inactive)
REMARK    1  A    between atoms: C_2  and  O_3 
REMARK    2  A    between atoms: O_3  and  C_4 
REMARK    3  A    between atoms: C_6  and  C_4 
REMARK    4  A    between atoms: C_6  and  C_7 
REMARK    5  A    between atoms: C_6  and  C_15 
REMARK    6  A    between atoms: C_7  and  C_8 
REMARK    7  A    between atoms: C_8  and  C_9 
REMARK    8  A    between atoms: C_15  and  C_28 
REMARK       I    between atoms: N_19  and  C_20 
REMARK    9  A    between atoms: C_22  and  C_20 
REMARK   10  A    between atoms: C_22  and  N_24 
ROOT
ATOM      1  C   UNL d   1      -1.236  -0.405  -1.010  0.00  0.00     0.136 C 
ATOM      2  C   UNL d   1      -1.245  -1.561  -2.005  0.00  0.00     0.045 C 
ATOM      3  C   UNL d   1      -1.978  -2.714  -1.336  0.00  0.00     0.023 C 
ATOM      4  C   UNL d   1      -2.754  -2.113  -0.180  0.00  0.00     0.127 C 
ATOM      5  N   UNL d   1      -2.241  -0.766  -0.003  0.00  0.00    -0.330 N 
ATOM      6  C   UNL d   1      -2.770   0.108   1.013  0.00  0.00     0.251 C 
ATOM      7  O   UNL d   1      -2.525   1.346   0.984  0.00  0.00    -0.271 OA
ENDROOT
BRANCH   1   8
ATOM      8  C   UNL d   1       0.185  -0.284  -0.385  0.00  0.00     0.125 C 
BRANCH   8   9
ATOM      9  C   UNL d   1       0.398   0.903   0.511  0.00  0.00     0.266 C 
ATOM     10  O   UNL d   1       0.175   0.816   1.751  0.00  0.00    -0.265 OA
BRANCH   9  11
ATOM     11  O   UNL d   1       0.851   2.099  -0.045  0.00  0.00    -0.321 OA
BRANCH  11  12
ATOM     12  C   UNL d   1       1.032   3.269   0.738  0.00  0.00     0.174 C 
ATOM     13  C   UNL d   1       1.536   4.393  -0.142  0.00  0.00     0.034 C 
ENDBRANCH  11  12
ENDBRANCH   9  11
ENDBRANCH   8   9
BRANCH   8  14
ATOM     14  C   UNL d   1       0.678  -1.567   0.287  0.00  0.00     0.022 C 
BRANCH  14  15
ATOM     15  C   UNL d   1       1.750  -2.240  -0.559  0.00  0.00     0.039 C 
BRANCH  15  16
ATOM     16  C   UNL d   1       3.030  -1.471  -0.516  0.00  0.00    -0.058 A 
ATOM     17  C   UNL d   1       3.917  -1.641   0.553  0.00  0.00     0.007 A 
ATOM     18  C   UNL d   1       5.103  -0.901   0.604  0.00  0.00     0.001 A 
ATOM     19  C   UNL d   1       5.401   0.013  -0.412  0.00  0.00     0.000 A 
ATOM     20  C   UNL d   1       4.514   0.188  -1.479  0.00  0.00     0.001 A 
ATOM     21  C   UNL d   1       3.328  -0.551  -1.530  0.00  0.00     0.007 A 
ENDBRANCH  15  16
ENDBRANCH  14  15
ENDBRANCH   8  14
ENDBRANCH   1   8
BRANCH   1  22
ATOM     22  C   UNL d   1      -1.635   0.831  -1.782  0.00  0.00     0.203 C 
ATOM     23  O   UNL d   1      -2.977   1.168  -1.919  0.00  0.00    -0.646 OA
ATOM     24  O   UNL d   1      -0.767   1.507  -2.398  0.00  0.00    -0.646 OA
ENDBRANCH   1  22
BRANCH   6  25
ATOM     25  C   UNL d   1      -3.633  -0.441   2.107  0.00  0.00     0.271 C 
ATOM     26  C   UNL d   1      -5.048   0.089   1.980  0.00  0.00     0.050 C 
BRANCH  25  27
ATOM     27  N   UNL d   1      -3.088  -0.077   3.403  0.00  0.00    -0.067 N 
ATOM     28  HN3 UNL d   1      -2.115  -0.367   3.503  1.00  0.00     0.275 HD
ATOM     29  HN2 UNL d   1      -2.954   0.930   3.492  1.00  0.00     0.275 HD
ATOM     30  HN1 UNL d   1      -3.676  -0.451   4.148  1.00  0.00     0.275 HD
ENDBRANCH  25  27
ENDBRANCH   6  25
TORSDOF 10
