REMARK  2 active torsions:
REMARK  status: ('A' for Active; 'I' for Inactive)
REMARK    1  A    between atoms: C_2  and  C_4 
REMARK    2  A    between atoms: C_4  and  O_26 
ROOT
ATOM      1  C   UNL d   1       3.293   0.459  -0.125  0.00  0.00     0.125 C 
ATOM      2  C   UNL d   1       3.333   1.147  -1.483  0.00  0.00     0.047 C 
ATOM      3  C   UNL d   1       2.110   0.670  -2.260  0.00  0.00     0.009 C 
ATOM      4  C   UNL d   1       1.390  -0.370  -1.403  0.00  0.00     0.005 C 
ATOM      5  C   UNL d   1       2.433  -0.808  -0.361  0.00  0.00    -0.002 C 
ATOM      6  C   UNL d   1       1.832  -1.405   0.925  0.00  0.00     0.013 C 
ATOM      7  C   UNL d   1       0.642  -0.627   1.462  0.00  0.00     0.007 C 
ATOM      8  C   UNL d   1      -0.431  -0.523   0.384  0.00  0.00     0.007 C 
ATOM      9  C   UNL d   1       0.128   0.275  -0.804  0.00  0.00     0.020 C 
ATOM     10  C   UNL d   1      -0.912   0.458  -1.875  0.00  0.00     0.003 C 
ATOM     11  C   UNL d   1      -2.220   0.471  -1.617  0.00  0.00     0.037 C 
ATOM     12  C   UNL d   1      -2.727   0.197  -0.249  0.00  0.00    -0.024 C 
ATOM     13  C   UNL d   1      -4.043   0.137  -0.049  0.00  0.00     0.060 C 
ATOM     14  C   UNL d   1      -4.595  -0.225   1.251  0.00  0.00     0.154 C 
ATOM     15  O   UNL d   1      -5.793   0.050   1.517  0.00  0.00    -0.293 OA
ATOM     16  C   UNL d   1      -3.781  -1.014   2.223  0.00  0.00     0.065 A 
ATOM     17  C   UNL d   1      -3.043  -0.086   3.157  0.00  0.00     0.019 A 
ATOM     18  C   UNL d   1      -2.262  -0.827   2.075  0.00  0.00     0.011 A 
ATOM     19  C   UNL d   1      -1.749   0.094   0.917  0.00  0.00    -0.006 C 
ATOM     20  C   UNL d   1      -1.467   1.517   1.422  0.00  0.00     0.021 C 
ATOM     21 CL   UNL d   1      -3.319   0.711  -2.969  0.00  0.00    -0.084 Cl
ATOM     22  C   UNL d   1       3.243  -1.931  -1.007  0.00  0.00     0.019 C 
ENDROOT
BRANCH   1  23
ATOM     23  C   UNL d   1       4.693   0.170   0.385  0.00  0.00     0.158 C 
ATOM     24  C   UNL d   1       5.037   0.356   1.828  0.00  0.00     0.094 C 
ATOM     25  O   UNL d   1       5.561  -0.228  -0.377  0.00  0.00    -0.295 OA
ENDBRANCH   1  23
BRANCH   1  26
ATOM     26  O   UNL d   1       2.647   1.329   0.763  0.00  0.00    -0.381 OA
ATOM     27  HO  UNL d   1       1.771   1.510   0.444  1.00  0.00     0.211 HD
ENDBRANCH   1  26
TORSDOF 2
