REMARK  2 active torsions:
REMARK  status: ('A' for Active; 'I' for Inactive)
REMARK    1  A    between atoms: C_2  and  C_4 
REMARK    2  A    between atoms: C_4  and  O_26 
ROOT
ATOM      1  C   UNL d   1       3.761   0.002   0.213  0.00  0.00     0.125 C 
ATOM      2  C   UNL d   1       3.904   0.883  -1.041  0.00  0.00     0.047 C 
ATOM      3  C   UNL d   1       2.536   1.512  -1.320  0.00  0.00     0.009 C 
ATOM      4  C   UNL d   1       1.680   1.047  -0.163  0.00  0.00     0.005 C 
ATOM      5  C   UNL d   1       2.246  -0.273   0.322  0.00  0.00    -0.002 C 
ATOM      6  C   UNL d   1       1.738  -0.560   1.752  0.00  0.00     0.013 C 
ATOM      7  C   UNL d   1       0.283  -0.090   2.010  0.00  0.00     0.007 C 
ATOM      8  C   UNL d   1      -0.503   0.086   0.698  0.00  0.00     0.007 C 
ATOM      9  C   UNL d   1       0.149   1.149  -0.205  0.00  0.00     0.020 C 
ATOM     10  C   UNL d   1      -0.462   1.115  -1.572  0.00  0.00     0.003 C 
ATOM     11  C   UNL d   1      -1.756   0.821  -1.738  0.00  0.00     0.037 C 
ATOM     12  C   UNL d   1      -2.597   0.377  -0.585  0.00  0.00    -0.024 C 
ATOM     13  C   UNL d   1      -3.872   0.059  -0.803  0.00  0.00     0.060 C 
ATOM     14  C   UNL d   1      -4.690  -0.525   0.255  0.00  0.00     0.154 C 
ATOM     15  O   UNL d   1      -5.945  -0.473   0.177  0.00  0.00    -0.293 OA
ATOM     16  C   UNL d   1      -4.043  -1.287   1.368  0.00  0.00     0.065 A 
ATOM     17  C   UNL d   1      -3.813  -0.386   2.557  0.00  0.00     0.019 A 
ATOM     18  C   UNL d   1      -2.618  -0.815   1.706  0.00  0.00     0.011 A 
ATOM     19  C   UNL d   1      -2.017   0.336   0.832  0.00  0.00    -0.006 C 
ATOM     20  C   UNL d   1      -2.233   1.708   1.486  0.00  0.00     0.021 C 
ATOM     21 CL   UNL d   1      -2.397   0.845  -3.375  0.00  0.00    -0.084 Cl
ATOM     22  C   UNL d   1       1.801  -1.414  -0.605  0.00  0.00     0.019 C 
ENDROOT
BRANCH   1  23
ATOM     23  C   UNL d   1       4.612  -1.250   0.107  0.00  0.00     0.158 C 
ATOM     24  C   UNL d   1       5.354  -1.776   1.292  0.00  0.00     0.094 C 
ATOM     25  O   UNL d   1       4.697  -1.852  -0.953  0.00  0.00    -0.295 OA
ENDBRANCH   1  23
BRANCH   1  26
ATOM     26  O   UNL d   1       4.185   0.761   1.313  0.00  0.00    -0.381 OA
ATOM     27  HO  UNL d   1       3.652   1.545   1.379  1.00  0.00     0.211 HD
ENDBRANCH   1  26
TORSDOF 2
