REMARK  3 active torsions:
REMARK  status: ('A' for Active; 'I' for Inactive)
REMARK    1  A    between atoms: C_2  and  C_4 
REMARK    2  A    between atoms: C_7  and  O_8 
REMARK    3  A    between atoms: C_10  and  C_12 
ROOT
ATOM      1  C   UNL d   1      -1.381   0.010   0.049  0.00  0.00     0.010 A 
ATOM      2  C   UNL d   1      -1.309   1.205   0.776  0.00  0.00     0.018 A 
ATOM      3  C   UNL d   1      -0.070   1.770   1.083  0.00  0.00     0.038 A 
ATOM      4  C   UNL d   1       1.112   1.152   0.668  0.00  0.00     0.082 A 
ATOM      5  C   UNL d   1       1.058  -0.054  -0.066  0.00  0.00     0.074 A 
ATOM      6  C   UNL d   1      -0.194  -0.609  -0.365  0.00  0.00     0.036 A 
ENDROOT
BRANCH   1   7
ATOM      7  C   UNL d   1      -2.687  -0.595  -0.279  0.00  0.00     0.155 C 
ATOM      8  C   UNL d   1      -3.963   0.045   0.152  0.00  0.00     0.096 C 
ATOM      9  O   UNL d   1      -2.740  -1.670  -0.934  0.00  0.00    -0.293 OA
ENDBRANCH   1   7
BRANCH   5  10
ATOM     10  C   UNL d   1       2.272  -0.758  -0.533  0.00  0.00     0.212 C 
ATOM     11  O   UNL d   1       2.155  -1.942  -1.252  0.00  0.00    -0.644 OA
ATOM     12  O   UNL d   1       3.422  -0.303  -0.292  0.00  0.00    -0.644 OA
ENDBRANCH   5  10
BRANCH   4  13
ATOM     13  O   UNL d   1       2.325   1.747   0.994  0.00  0.00    -0.360 OA
ATOM     14  HO  UNL d   1       3.129   1.327   0.712  1.00  0.00     0.217 HD
ENDBRANCH   4  13
TORSDOF 3
