REMARK  8 active torsions:
REMARK  status: ('A' for Active; 'I' for Inactive)
REMARK    1  A    between atoms: C_9  and  C_56 
REMARK    2  A    between atoms: C_16  and  C_17 
REMARK       I    between atoms: C_17  and  N_19 
REMARK    3  A    between atoms: C_21  and  N_19 
REMARK    4  A    between atoms: C_21  and  C_26 
REMARK    5  A    between atoms: C_23  and  C_24 
REMARK       I    between atoms: C_26  and  N_28 
REMARK    6  A    between atoms: N_28  and  S_30 
REMARK    7  A    between atoms: S_30  and  C_33 
REMARK    8  A    between atoms: C_42  and  O_43 
ROOT
ATOM      1  C   UNL d   1      -4.111   5.048  -0.104  0.00  0.00     0.018 A 
ATOM      2  C   UNL d   1      -4.069   6.564  -0.139  0.00  0.00     0.040 A 
ATOM      3  C   UNL d   1      -2.987   5.762  -0.837  0.00  0.00     0.138 A 
ATOM      4  O   UNL d   1      -1.823   5.731  -0.024  0.00  0.00    -0.298 OA
ATOM      5  C   UNL d   1      -0.767   4.859  -0.284  0.00  0.00     0.361 C 
ATOM      6  O   UNL d   1      -0.785   4.117  -1.307  0.00  0.00    -0.238 OA
ATOM      7  N   UNL d   1       0.342   4.819   0.618  0.00  0.00    -0.323 N 
ATOM      8  HN  UNL d   1       0.408   5.529   1.348  1.00  0.00     0.165 HD
ATOM      9  C   UNL d   1       1.384   3.797   0.531  0.00  0.00     0.186 C 
ATOM     10  C   UNL d   1       1.088   2.677   1.494  0.00  0.00     0.244 C 
ATOM     11  O   UNL d   1       1.221   2.858   2.736  0.00  0.00    -0.271 OA
ATOM     12  N   UNL d   1       0.559   1.440   1.008  0.00  0.00    -0.334 N 
ATOM     13  C   UNL d   1      -0.543   1.404   0.071  0.00  0.00     0.159 C 
ATOM     14  C   UNL d   1      -1.155   0.025   0.203  0.00  0.00     0.151 C 
ATOM     15  C   UNL d   1      -0.524  -0.602   1.441  0.00  0.00     0.069 C 
ATOM     16  C   UNL d   1       0.757   0.176   1.696  0.00  0.00     0.181 C 
ATOM     17  O   UNL d   1      -2.560   0.148   0.377  0.00  0.00    -0.327 OA
ATOM     18  C   UNL d   1      -3.444  -0.900   0.102  0.00  0.00     0.166 A 
ATOM     19  N   UNL d   1      -2.976  -2.105  -0.329  0.00  0.00    -0.333 N 
ATOM     20  HN  UNL d   1      -1.972  -2.237  -0.453  1.00  0.00     0.168 HD
ATOM     21  C   UNL d   1      -3.821  -3.133  -0.595  0.00  0.00     0.063 A 
ATOM     22  C   UNL d   1      -3.325  -4.364  -1.029  0.00  0.00     0.068 A 
ATOM     23  C   UNL d   1      -4.203  -5.429  -1.285  0.00  0.00     0.070 A 
ATOM     24  C   UNL d   1      -5.579  -5.244  -1.101  0.00  0.00     0.039 A 
ATOM     25  C   UNL d   1      -6.082  -4.010  -0.674  0.00  0.00     0.035 A 
ATOM     26  C   UNL d   1      -5.207  -2.952  -0.424  0.00  0.00     0.059 A 
ATOM     27  N   UNL d   1      -5.675  -1.750  -0.002  0.00  0.00    -0.354 N 
ATOM     28  HN  UNL d   1      -6.680  -1.618   0.116  1.00  0.00     0.166 HD
ATOM     29  C   UNL d   1      -4.830  -0.720   0.265  0.00  0.00     0.061 A 
ATOM     30  C   UNL d   1      -5.383   0.582   0.748  0.00  0.00     0.061 C 
ATOM     31  C   UNL d   1      -5.680   1.532  -0.400  0.00  0.00     0.006 C 
ATOM     32  C   UNL d   1      -4.397   2.147  -0.928  0.00  0.00     0.000 C 
ATOM     33  C   UNL d   1      -4.682   3.318  -1.858  0.00  0.00     0.000 C 
ATOM     34  C   UNL d   1      -5.156   4.552  -1.094  0.00  0.00     0.007 C 
ENDROOT
BRANCH  16  35
ATOM     35  C   UNL d   1       1.920  -0.563   1.089  0.00  0.00     0.241 C 
ATOM     36  O   UNL d   1       2.745   0.053   0.357  0.00  0.00    -0.271 OA
ATOM     37  N   UNL d   1       2.095  -1.962   1.356  0.00  0.00    -0.341 N 
ATOM     38  HN  UNL d   1       1.608  -2.366   2.157  1.00  0.00     0.163 HD
BRANCH  37  39
ATOM     39  C   UNL d   1       2.933  -2.838   0.542  0.00  0.00     0.122 A 
ATOM     40  C   UNL d   1       2.215  -3.376  -0.676  0.00  0.00     0.053 A 
ATOM     41  C   UNL d   1       2.480  -4.295   0.515  0.00  0.00     0.048 A 
BRANCH  41  42
ATOM     42  C   UNL d   1       3.575  -5.256   0.159  0.00  0.00    -0.029 C 
ATOM     43  C   UNL d   1       4.069  -6.082   1.085  0.00  0.00     0.007 C 
ENDBRANCH  41  42
BRANCH  39  44
ATOM     44  C   UNL d   1       4.378  -2.472   0.350  0.00  0.00     0.260 C 
ATOM     45  O   UNL d   1       5.197  -2.648   1.291  0.00  0.00    -0.270 OA
ATOM     46  N   UNL d   1       4.804  -1.900  -0.888  0.00  0.00    -0.252 N 
ATOM     47  HN  UNL d   1       4.104  -1.719  -1.608  1.00  0.00     0.181 HD
BRANCH  46  48
ATOM     48  S   UNL d   1       6.451  -1.501  -1.223  0.00  0.00     0.237 S 
ATOM     49  O   UNL d   1       6.534  -0.932  -2.611  0.00  0.00    -0.205 OA
ATOM     50  O   UNL d   1       7.283  -2.748  -1.160  0.00  0.00    -0.205 OA
BRANCH  48  51
ATOM     51  C   UNL d   1       7.047  -0.321  -0.022  0.00  0.00     0.130 A 
ATOM     52  C   UNL d   1       6.366   1.014  -0.239  0.00  0.00     0.023 A 
ATOM     53  C   UNL d   1       7.788   0.806  -0.711  0.00  0.00     0.023 A 
ENDBRANCH  48  51
ENDBRANCH  46  48
ENDBRANCH  39  44
ENDBRANCH  37  39
ENDBRANCH  16  35
BRANCH   9  54
ATOM     54  C   UNL d   1       2.792   4.414   0.697  0.00  0.00    -0.022 C 
ATOM     55  C   UNL d   1       3.861   3.333   0.666  0.00  0.00     0.017 C 
ATOM     56  C   UNL d   1       2.918   5.193   2.000  0.00  0.00     0.017 C 
ATOM     57  C   UNL d   1       3.062   5.362  -0.458  0.00  0.00     0.017 C 
ENDBRANCH   9  54
BRANCH  23  58
ATOM     58  O   UNL d   1      -3.739  -6.673  -1.718  0.00  0.00    -0.356 OA
ATOM     59  C   UNL d   1      -2.358  -6.956  -1.903  0.00  0.00     0.210 C 
ENDBRANCH  23  58
TORSDOF 8
