REMARK  26 active torsions:
REMARK  status: ('A' for Active; 'I' for Inactive)
REMARK    1  A    between atoms: C_9  and  O_10 
REMARK    2  A    between atoms: O_10  and  C_11 
REMARK    3  A    between atoms: C_11  and  C_12 
REMARK    4  A    between atoms: C_12  and  N_13 
REMARK    5  A    between atoms: C_17  and  O_18 
REMARK    6  A    between atoms: C_21  and  N_22 
REMARK       I    between atoms: N_22  and  C_24 
REMARK    7  A    between atoms: C_24  and  C_26 
REMARK    8  A    between atoms: C_29  and  C_32 
REMARK    9  A    between atoms: C_35  and  C_38 
REMARK   10  A    between atoms: C_41  and  O_42 
REMARK   11  A    between atoms: O_42  and  C_43 
REMARK   12  A    between atoms: C_43  and  C_44 
REMARK   13  A    between atoms: C_44  and  C_45 
REMARK   14  A    between atoms: C_45  and  C_46 
REMARK   15  A    between atoms: C_54  and  C_55 
REMARK   16  A    between atoms: C_55  and  O_57 
REMARK   17  A    between atoms: C_68  and  C_67 
REMARK   18  A    between atoms: C_68  and  C_69 
REMARK   19  A    between atoms: C_68  and  O_80 
REMARK   20  A    between atoms: C_69  and  O_70 
REMARK   21  A    between atoms: C_69  and  C_72 
REMARK   22  A    between atoms: C_75  and  O_76 
REMARK   23  A    between atoms: C_86  and  C_87 
REMARK   24  A    between atoms: C_87  and  O_89 
REMARK   25  A    between atoms: C_92  and  O_93 
REMARK   26  A    between atoms: C_96  and  O_97 
ROOT
ATOM      1  O   UNL d   1      -5.515  -0.003   3.631  0.00  0.00    -0.266 OA
ATOM      2  C   UNL d   1      -6.024  -0.873   2.884  0.00  0.00     0.269 C 
ATOM      3  N   UNL d   1      -5.274  -2.067   2.580  0.00  0.00    -0.331 N 
ATOM      4  C   UNL d   1      -4.085  -2.404   3.340  0.00  0.00     0.208 C 
ATOM      5  C   UNL d   1      -2.869  -2.185   2.470  0.00  0.00     0.245 C 
ATOM      6  O   UNL d   1      -2.271  -1.069   2.493  0.00  0.00    -0.271 OA
ATOM      7  N   UNL d   1      -2.427  -3.235   1.601  0.00  0.00    -0.331 N 
ATOM      8  HN  UNL d   1      -2.806  -4.166   1.777  1.00  0.00     0.165 HD
ATOM      9  C   UNL d   1      -1.488  -3.107   0.489  0.00  0.00     0.252 C 
ATOM     10  C   UNL d   1      -0.017  -3.194   0.899  0.00  0.00     0.169 C 
ATOM     11  C   UNL d   1       0.620  -1.815   0.969  0.00  0.00     0.071 C 
ATOM     12  C   UNL d   1       0.851  -1.303  -0.442  0.00  0.00     0.179 C 
ATOM     13  C   UNL d   1      -0.261  -0.425  -0.912  0.00  0.00     0.241 C 
ATOM     14  O   UNL d   1      -1.218  -0.947  -1.531  0.00  0.00    -0.271 OA
ATOM     15  N   UNL d   1      -0.274   0.975  -0.595  0.00  0.00    -0.344 N 
ATOM     16  HN  UNL d   1       0.625   1.441  -0.476  1.00  0.00     0.163 HD
ATOM     17  C   UNL d   1      -1.483   1.784  -0.430  0.00  0.00     0.205 C 
ATOM     18  C   UNL d   1      -2.470   1.607  -1.559  0.00  0.00     0.246 C 
ATOM     19  O   UNL d   1      -2.211   2.083  -2.698  0.00  0.00    -0.271 OA
ATOM     20  N   UNL d   1      -3.682   0.862  -1.343  0.00  0.00    -0.334 N 
ATOM     21  C   UNL d   1      -4.703   0.701  -2.354  0.00  0.00     0.181 C 
ATOM     22  C   UNL d   1      -5.881   1.555  -1.975  0.00  0.00     0.241 C 
ATOM     23  O   UNL d   1      -5.731   2.795  -1.833  0.00  0.00    -0.271 OA
ATOM     24  N   UNL d   1      -7.155   0.962  -1.736  0.00  0.00    -0.344 N 
ATOM     25  HN  UNL d   1      -7.361   0.062  -2.168  1.00  0.00     0.163 HD
ATOM     26  C   UNL d   1      -8.177   1.585  -0.901  0.00  0.00     0.208 C 
ATOM     27  C   UNL d   1      -7.934   1.261   0.546  0.00  0.00     0.247 C 
ATOM     28  O   UNL d   1      -8.502   1.954   1.444  0.00  0.00    -0.271 OA
ATOM     29  N   UNL d   1      -7.179   0.101   0.915  0.00  0.00    -0.322 N 
ATOM     30  HN  UNL d   1      -6.517  -0.294   0.247  1.00  0.00     0.169 HD
ATOM     31  C   UNL d   1      -7.332  -0.528   2.220  0.00  0.00     0.109 C 
ATOM     32  C   UNL d   1      -5.063  -0.769  -2.265  0.00  0.00     0.068 C 
ATOM     33  C   UNL d   1      -4.819  -1.134  -0.804  0.00  0.00     0.138 C 
ATOM     34  C   UNL d   1      -3.786  -0.142  -0.298  0.00  0.00     0.158 C 
ATOM     35  C   UNL d   1      -4.264  -3.883   3.659  0.00  0.00     0.155 C 
ATOM     36  C   UNL d   1      -5.107  -4.423   2.494  0.00  0.00     0.031 C 
ATOM     37  C   UNL d   1      -6.068  -5.521   2.912  0.00  0.00     0.014 C 
ATOM     38  C   UNL d   1      -5.852  -3.226   1.925  0.00  0.00     0.134 C 
ENDROOT
BRANCH  12  39
ATOM     39  N   UNL d   1       2.180  -0.696  -0.568  0.00  0.00    -0.344 N 
ATOM     40  C   UNL d   1       2.768   0.277   0.293  0.00  0.00     0.252 C 
ATOM     41  O   UNL d   1       2.038   1.002   1.032  0.00  0.00    -0.268 OA
ATOM     42  HN  UNL d   1       2.747  -1.003  -1.359  1.00  0.00     0.163 HD
BRANCH  40  43
ATOM     43  C   UNL d   1       4.226   0.463   0.291  0.00  0.00     0.032 A 
ATOM     44  C   UNL d   1       5.031  -0.453  -0.404  0.00  0.00     0.018 A 
ATOM     45  C   UNL d   1       6.421  -0.318  -0.397  0.00  0.00     0.013 A 
ATOM     46  C   UNL d   1       7.024   0.734   0.314  0.00  0.00    -0.026 A 
ATOM     47  C   UNL d   1       6.208   1.644   1.008  0.00  0.00     0.013 A 
ATOM     48  C   UNL d   1       4.815   1.504   1.004  0.00  0.00     0.018 A 
BRANCH  46  49
ATOM     49  C   UNL d   1       8.496   0.883   0.305  0.00  0.00    -0.026 A 
ATOM     50  C   UNL d   1       9.277   0.185  -0.635  0.00  0.00     0.013 A 
ATOM     51  C   UNL d   1      10.671   0.324  -0.646  0.00  0.00     0.013 A 
ATOM     52  C   UNL d   1      11.313   1.169   0.276  0.00  0.00    -0.026 A 
ATOM     53  C   UNL d   1      10.533   1.870   1.210  0.00  0.00     0.013 A 
ATOM     54  C   UNL d   1       9.140   1.732   1.219  0.00  0.00     0.013 A 
BRANCH  52  55
ATOM     55  C   UNL d   1      12.789   1.334   0.247  0.00  0.00    -0.026 A 
ATOM     56  C   UNL d   1      13.534   0.915  -0.867  0.00  0.00     0.015 A 
ATOM     57  C   UNL d   1      14.926   1.048  -0.878  0.00  0.00     0.037 A 
ATOM     58  C   UNL d   1      15.598   1.594   0.227  0.00  0.00     0.068 A 
ATOM     59  C   UNL d   1      14.854   2.017   1.337  0.00  0.00     0.037 A 
ATOM     60  C   UNL d   1      13.463   1.893   1.346  0.00  0.00     0.015 A 
BRANCH  58  61
ATOM     61  O   UNL d   1      16.995   1.729   0.254  0.00  0.00    -0.351 OA
BRANCH  61  62
ATOM     62  C   UNL d   1      17.825   1.435  -0.869  0.00  0.00     0.175 C 
BRANCH  62  63
ATOM     63  C   UNL d   1      17.730   2.552  -1.905  0.00  0.00     0.027 C 
BRANCH  63  64
ATOM     64  C   UNL d   1      18.277   3.858  -1.337  0.00  0.00     0.002 C 
BRANCH  64  65
ATOM     65  C   UNL d   1      19.799   3.821  -1.244  0.00  0.00    -0.004 C 
ATOM     66  C   UNL d   1      20.392   3.913  -2.638  0.00  0.00     0.005 C 
ENDBRANCH  64  65
ENDBRANCH  63  64
ENDBRANCH  62  63
ENDBRANCH  61  62
ENDBRANCH  58  61
ENDBRANCH  52  55
ENDBRANCH  46  49
ENDBRANCH  40  43
ENDBRANCH  12  39
BRANCH  10  67
ATOM     67  O   UNL d   1       0.128  -3.832   2.130  0.00  0.00    -0.391 OA
ATOM     68  HO  UNL d   1       1.042  -3.886   2.384  1.00  0.00     0.210 HD
ENDBRANCH  10  67
BRANCH   9  69
ATOM     69  O   UNL d   1      -1.769  -3.999  -0.574  0.00  0.00    -0.362 OA
BRANCH  69  70
ATOM     70  C   UNL d   1      -2.205  -5.236  -0.067  0.00  0.00     0.198 C 
BRANCH  70  71
ATOM     71  C   UNL d   1      -1.005  -6.135   0.269  0.00  0.00     0.262 C 
BRANCH  71  72
ATOM     72  N   UNL d   1      -1.401  -7.512   0.607  0.00  0.00    -0.077 N 
ATOM     73  C   UNL d   1      -2.160  -8.128  -0.466  0.00  0.00     0.271 C 
ATOM     74  C   UNL d   1      -2.168  -7.542   1.840  0.00  0.00     0.271 C 
ATOM     75  C   UNL d   1      -0.185  -8.277   0.814  0.00  0.00     0.271 C 
ENDBRANCH  71  72
ENDBRANCH  70  71
ENDBRANCH  69  70
ENDBRANCH   9  69
BRANCH  17  76
ATOM     76  C   UNL d   1      -1.122   3.251  -0.258  0.00  0.00     0.146 C 
ATOM     77  C   UNL d   1      -0.481   3.481   1.100  0.00  0.00     0.042 C 
BRANCH  76  78
ATOM     78  O   UNL d   1      -0.252   3.662  -1.267  0.00  0.00    -0.393 OA
ATOM     79  HO  UNL d   1      -0.026   4.579  -1.160  1.00  0.00     0.210 HD
ENDBRANCH  76  78
ENDBRANCH  17  76
BRANCH  35  80
ATOM     80  O   UNL d   1      -4.940  -4.009   4.879  0.00  0.00    -0.393 OA
ATOM     81  HO  UNL d   1      -5.051  -4.931   5.078  1.00  0.00     0.210 HD
ENDBRANCH  35  80
BRANCH  33  82
ATOM     82  O   UNL d   1      -4.319  -2.431  -0.721  0.00  0.00    -0.394 OA
ATOM     83  HO  UNL d   1      -4.168  -2.658   0.189  1.00  0.00     0.210 HD
ENDBRANCH  33  82
BRANCH  31  84
ATOM     84  C   UNL d   1      -8.585  -1.425   2.396  0.00  0.00     0.169 C 
ATOM     85  C   UNL d   1      -9.289  -1.692   1.087  0.00  0.00     0.046 C 
BRANCH  84  86
ATOM     86  O   UNL d   1      -8.292  -2.631   3.031  0.00  0.00    -0.390 OA
ATOM     87  HO  UNL d   1      -9.059  -3.181   3.139  1.00  0.00     0.210 HD
ENDBRANCH  84  86
ENDBRANCH  31  84
BRANCH  26  88
ATOM     88  C   UNL d   1      -9.578   1.099  -1.274  0.00  0.00     0.183 C 
BRANCH  88  89
ATOM     89  C   UNL d   1     -10.637   2.203  -1.297  0.00  0.00     0.182 C 
BRANCH  89  90
ATOM     90  O   UNL d   1     -10.970   2.599   0.007  0.00  0.00    -0.388 OA
ATOM     91  HO  UNL d   1     -11.627   3.285  -0.007  1.00  0.00     0.210 HD
ENDBRANCH  89  90
BRANCH  89  92
ATOM     92  C   UNL d   1     -10.286   3.381  -2.155  0.00  0.00    -0.027 A 
ATOM     93  C   UNL d   1     -10.617   3.357  -3.513  0.00  0.00     0.012 A 
ATOM     94  C   UNL d   1     -10.377   4.486  -4.309  0.00  0.00     0.037 A 
ATOM     95  C   UNL d   1      -9.808   5.632  -3.747  0.00  0.00     0.065 A 
ATOM     96  C   UNL d   1      -9.463   5.652  -2.393  0.00  0.00     0.037 A 
ATOM     97  C   UNL d   1      -9.691   4.524  -1.598  0.00  0.00     0.012 A 
BRANCH  95  98
ATOM     98  O   UNL d   1      -9.591   6.756  -4.534  0.00  0.00    -0.361 OA
ATOM     99  HO  UNL d   1      -9.204   7.535  -4.152  1.00  0.00     0.217 HD
ENDBRANCH  95  98
ENDBRANCH  89  92
ENDBRANCH  88  89
BRANCH  88 100
ATOM    100  O   UNL d   1      -9.610   0.366  -2.454  0.00  0.00    -0.390 OA
ATOM    101  HO  UNL d   1     -10.481   0.064  -2.685  1.00  0.00     0.210 HD
ENDBRANCH  88 100
ENDBRANCH  26  88
TORSDOF 26
