REMARK  8 active torsions:
REMARK  status: ('A' for Active; 'I' for Inactive)
REMARK    1  A    between atoms: C_16  and  O_34 
REMARK    2  A    between atoms: C_19  and  C_20 
REMARK    3  A    between atoms: C_19  and  O_27 
REMARK    4  A    between atoms: C_20  and  C_22 
REMARK    5  A    between atoms: C_22  and  O_23 
REMARK    6  A    between atoms: O_23  and  C_24 
REMARK    7  A    between atoms: O_27  and  C_28 
REMARK    8  A    between atoms: C_28  and  C_30 
ROOT
ATOM      1  C   UNL d   1       1.403   1.773   1.689  0.00  0.00     0.013 C 
ATOM      2  C   UNL d   1       1.575   1.505   0.200  0.00  0.00     0.026 C 
ATOM      3  C   UNL d   1       0.252   1.809  -0.493  0.00  0.00     0.013 C 
ATOM      4  C   UNL d   1      -0.249   0.493  -1.071  0.00  0.00     0.005 C 
ATOM      5  C   UNL d   1      -1.763   0.302  -0.975  0.00  0.00     0.035 C 
ATOM      6  C   UNL d   1      -2.623   1.221  -1.823  0.00  0.00     0.013 C 
ATOM      7  C   UNL d   1      -3.930   0.485  -2.124  0.00  0.00     0.036 C 
ATOM      8  C   UNL d   1      -4.463  -0.253  -0.919  0.00  0.00    -0.061 C 
ATOM      9  C   UNL d   1      -5.473  -1.107  -1.108  0.00  0.00     0.058 C 
ATOM     10  C   UNL d   1      -6.026  -1.875   0.009  0.00  0.00     0.172 C 
ATOM     11  O   UNL d   1      -7.011  -2.637  -0.172  0.00  0.00    -0.289 OA
ATOM     12  C   UNL d   1      -5.402  -1.780   1.330  0.00  0.00     0.052 C 
ATOM     13  C   UNL d   1      -4.403  -0.922   1.540  0.00  0.00    -0.006 C 
ATOM     14  C   UNL d   1      -3.889   0.034   0.475  0.00  0.00     0.036 C 
ATOM     15  C   UNL d   1      -2.306   0.073   0.450  0.00  0.00     0.147 C 
ATOM     16  C   UNL d   1      -1.633  -1.221   0.944  0.00  0.00     0.160 C 
ATOM     17  C   UNL d   1      -0.102  -1.065   0.966  0.00  0.00     0.048 C 
ATOM     18  C   UNL d   1       0.541  -0.628  -0.382  0.00  0.00     0.002 C 
ATOM     19  C   UNL d   1       1.925   0.030  -0.126  0.00  0.00     0.144 C 
ATOM     20  C   UNL d   1       0.619  -1.852  -1.293  0.00  0.00     0.019 C 
ATOM     21  F   UNL d   1      -1.868   1.101   1.277  0.00  0.00    -0.238 F 
ATOM     22  C   UNL d   1      -4.436   1.406   0.867  0.00  0.00     0.028 C 
ENDROOT
BRANCH  19  23
ATOM     23  C   UNL d   1       2.816  -0.029  -1.370  0.00  0.00     0.187 C 
ATOM     24  O   UNL d   1       3.574  -0.976  -1.522  0.00  0.00    -0.292 OA
BRANCH  23  25
ATOM     25  C   UNL d   1       2.714   0.991  -2.469  0.00  0.00     0.260 C 
BRANCH  25  26
ATOM     26  O   UNL d   1       4.001   1.500  -2.800  0.00  0.00    -0.314 OA
BRANCH  26  27
ATOM     27  C   UNL d   1       4.628   2.498  -2.051  0.00  0.00     0.255 C 
ATOM     28  O   UNL d   1       4.045   3.039  -1.075  0.00  0.00    -0.266 OA
ATOM     29  C   UNL d   1       6.000   2.934  -2.420  0.00  0.00     0.126 C 
ENDBRANCH  26  27
ENDBRANCH  25  26
ENDBRANCH  23  25
ENDBRANCH  19  23
BRANCH  19  30
ATOM     30  O   UNL d   1       2.591  -0.623   0.971  0.00  0.00    -0.301 OA
BRANCH  30  31
ATOM     31  C   UNL d   1       3.838  -0.243   1.494  0.00  0.00     0.263 C 
ATOM     32  O   UNL d   1       4.467   0.742   1.021  0.00  0.00    -0.265 OA
BRANCH  31  33
ATOM     33  C   UNL d   1       4.429  -1.007   2.628  0.00  0.00     0.077 C 
ATOM     34  C   UNL d   1       3.514  -0.944   3.835  0.00  0.00     0.020 C 
ATOM     35  C   UNL d   1       4.648  -2.453   2.227  0.00  0.00     0.020 C 
ENDBRANCH  31  33
ENDBRANCH  30  31
ENDBRANCH  19  30
BRANCH  16  36
ATOM     36  O   UNL d   1      -2.002  -2.321   0.164  0.00  0.00    -0.392 OA
ATOM     37  HO  UNL d   1      -1.587  -3.119   0.469  1.00  0.00     0.210 HD
ENDBRANCH  16  36
TORSDOF 8
