REMARK  2 active torsions:
REMARK  status: ('A' for Active; 'I' for Inactive)
REMARK       I    between atoms: C_2  and  N_6 
REMARK       I    between atoms: N_6  and  C_8 
REMARK    1  A    between atoms: C_8  and  C_10 
REMARK    2  A    between atoms: C_10  and  C_11 
ROOT
ATOM      1  N   UNL d   1       4.175  -1.065  -0.308  0.00  0.00    -0.064 NA
ATOM      2  C   UNL d   1       3.259  -0.083   0.162  0.00  0.00     0.188 C 
ATOM      3  N   UNL d   1       3.516   0.552   1.257  0.00  0.00    -0.373 N 
ATOM      4  HN1 UNL d   1       2.859   1.256   1.595  1.00  0.00     0.158 HD
ATOM      5  HN2 UNL d   1       4.366   0.366   1.790  1.00  0.00     0.158 HD
ATOM      6  N   UNL d   1       2.065   0.179  -0.586  0.00  0.00    -0.301 N 
ATOM      7  HN  UNL d   1       1.925  -0.362  -1.439  1.00  0.00     0.171 HD
ATOM      8  C   UNL d   1       1.051   1.131  -0.244  0.00  0.00     0.228 C 
ATOM      9  O   UNL d   1       1.148   1.842   0.792  0.00  0.00    -0.273 OA
ENDROOT
BRANCH   8  10
ATOM     10  C   UNL d   1      -0.152   1.267  -1.115  0.00  0.00     0.145 C 
BRANCH  10  11
ATOM     11  C   UNL d   1      -1.183   0.234  -0.763  0.00  0.00    -0.006 A 
ATOM     12  C   UNL d   1      -1.196  -1.011  -1.423  0.00  0.00     0.042 A 
ATOM     13 CL   UNL d   1      -0.051  -1.394  -2.701  0.00  0.00    -0.084 Cl
ATOM     14  C   UNL d   1      -2.145  -1.976  -1.075  0.00  0.00     0.024 A 
ATOM     15  C   UNL d   1      -3.083  -1.715  -0.076  0.00  0.00     0.003 A 
ATOM     16  C   UNL d   1      -3.078  -0.483   0.580  0.00  0.00     0.024 A 
ATOM     17  C   UNL d   1      -2.136   0.493   0.243  0.00  0.00     0.042 A 
ATOM     18 CL   UNL d   1      -2.190   2.030   1.094  0.00  0.00    -0.084 Cl
ENDBRANCH  10  11
ENDBRANCH   8  10
TORSDOF 2
