REMARK  11 active torsions:
REMARK  status: ('A' for Active; 'I' for Inactive)
REMARK    1  A    between atoms: C_2  and  C_4 
REMARK    2  A    between atoms: C_2  and  C_7 
REMARK    3  A    between atoms: C_4  and  O_5 
REMARK    4  A    between atoms: C_11  and  N_12 
REMARK       I    between atoms: N_12  and  C_14 
REMARK    5  A    between atoms: C_14  and  C_16 
REMARK    6  A    between atoms: C_16  and  C_19 
REMARK    7  A    between atoms: N_34  and  C_35 
REMARK    8  A    between atoms: C_36  and  C_35 
REMARK    9  A    between atoms: C_36  and  O_37 
REMARK   10  A    between atoms: C_36  and  C_39 
REMARK   11  A    between atoms: C_39  and  O_40 
ROOT
ATOM      1  C   UNL d   1       4.488  -0.217   0.870  0.00  0.00     0.023 A 
ATOM      2  C   UNL d   1       3.417  -1.118   0.972  0.00  0.00     0.039 A 
ATOM      3  C   UNL d   1       2.417  -0.542   0.216  0.00  0.00    -0.005 A 
ATOM      4  C   UNL d   1       1.127  -0.996  -0.039  0.00  0.00     0.046 A 
ATOM      5  C   UNL d   1       0.295  -0.211  -0.866  0.00  0.00     0.074 A 
ATOM      6  C   UNL d   1       0.788   1.000  -1.410  0.00  0.00     0.145 A 
ATOM      7  F   UNL d   1      -0.003   1.760  -2.206  0.00  0.00    -0.204 F 
ATOM      8  C   UNL d   1       2.098   1.430  -1.134  0.00  0.00     0.075 A 
ATOM      9  C   UNL d   1       2.887   0.627  -0.311  0.00  0.00     0.048 A 
ATOM     10  N   UNL d   1       4.156   0.837   0.074  0.00  0.00    -0.346 N 
ENDROOT
BRANCH   5  11
ATOM     11  N   UNL d   1      -1.047  -0.614  -1.176  0.00  0.00    -0.324 N 
ATOM     12  C   UNL d   1      -1.720  -1.794  -0.717  0.00  0.00     0.235 C 
ATOM     13  O   UNL d   1      -1.155  -2.602   0.069  0.00  0.00    -0.272 OA
ATOM     14  HN  UNL d   1      -1.579   0.005  -1.788  1.00  0.00     0.169 HD
BRANCH  12  15
ATOM     15  C   UNL d   1      -3.129  -2.044  -1.141  0.00  0.00     0.068 A 
ATOM     16  C   UNL d   1      -3.347  -2.140  -2.637  0.00  0.00     0.026 A 
ATOM     17  C   UNL d   1      -3.399  -3.393  -1.775  0.00  0.00     0.026 A 
BRANCH  15  18
ATOM     18  C   UNL d   1      -4.253  -1.446  -0.356  0.00  0.00    -0.037 A 
ATOM     19  C   UNL d   1      -4.820  -2.161   0.726  0.00  0.00     0.011 A 
ATOM     20  C   UNL d   1      -5.852  -1.596   1.497  0.00  0.00     0.040 A 
ATOM     21  C   UNL d   1      -6.280  -0.316   1.159  0.00  0.00     0.111 A 
ATOM     22  O   UNL d   1      -7.265   0.446   1.756  0.00  0.00    -0.256 OA
ATOM     23  C   UNL d   1      -5.731   0.380   0.130  0.00  0.00     0.112 A 
ATOM     24  C   UNL d   1      -7.338   1.698   1.059  0.00  0.00     0.498 A 
ATOM     25  F   UNL d   1      -7.053   2.742   1.919  0.00  0.00    -0.147 F 
ATOM     26  F   UNL d   1      -8.591   1.862   0.500  0.00  0.00    -0.147 F 
ATOM     27  O   UNL d   1      -6.342   1.615   0.030  0.00  0.00    -0.256 OA
ATOM     28  C   UNL d   1      -4.707  -0.144  -0.655  0.00  0.00     0.048 A 
ENDBRANCH  15  18
ENDBRANCH  12  15
ENDBRANCH   5  11
BRANCH   1  29
ATOM     29  C   UNL d   1       5.855  -0.434   1.494  0.00  0.00     0.016 C 
ATOM     30  C   UNL d   1       6.349   0.837   2.168  0.00  0.00     0.023 C 
ATOM     31  C   UNL d   1       6.840  -0.814   0.405  0.00  0.00     0.023 C 
BRANCH  29  32
ATOM     32  C   UNL d   1       5.850  -1.565   2.526  0.00  0.00     0.179 C 
BRANCH  32  33
ATOM     33  O   UNL d   1       5.014  -1.262   3.605  0.00  0.00    -0.400 OA
ATOM     34  HO  UNL d   1       5.011  -1.964   4.245  1.00  0.00     0.209 HD
ENDBRANCH  32  33
ENDBRANCH  29  32
ENDBRANCH   1  29
BRANCH  10  35
ATOM     35  C   UNL d   1       5.008   1.947  -0.345  0.00  0.00     0.163 C 
BRANCH  35  36
ATOM     36  C   UNL d   1       5.780   1.584  -1.605  0.00  0.00     0.160 C 
BRANCH  36  37
ATOM     37  O   UNL d   1       4.915   1.555  -2.699  0.00  0.00    -0.392 OA
ATOM     38  HO  UNL d   1       5.397   1.328  -3.485  1.00  0.00     0.210 HD
ENDBRANCH  36  37
BRANCH  36  39
ATOM     39  C   UNL d   1       6.869   2.610  -1.858  0.00  0.00     0.197 C 
BRANCH  39  40
ATOM     40  O   UNL d   1       7.878   2.479  -0.903  0.00  0.00    -0.398 OA
ATOM     41  HO  UNL d   1       8.560   3.122  -1.061  1.00  0.00     0.209 HD
ENDBRANCH  39  40
ENDBRANCH  36  39
ENDBRANCH  35  36
ENDBRANCH  10  35
TORSDOF 11
