REMARK  5 active torsions:
REMARK  status: ('A' for Active; 'I' for Inactive)
REMARK    1  A    between atoms: C_6  and  O_23 
REMARK    2  A    between atoms: C_11  and  O_21 
REMARK    3  A    between atoms: C_12  and  N_28 
REMARK    4  A    between atoms: C_13  and  O_18 
REMARK    5  A    between atoms: C_14  and  N_25 
ROOT
ATOM      1  C   UNL d   1      -4.388  -1.254   1.532  0.00  0.00     0.040 C 
ATOM      2  C   UNL d   1      -4.180  -0.767   0.103  0.00  0.00     0.128 C 
ATOM      3  C   UNL d   1      -4.288   0.770  -0.004  0.00  0.00     0.116 C 
ATOM      4  C   UNL d   1      -2.959   1.444   0.206  0.00  0.00     0.196 C 
ATOM      5  O   UNL d   1      -2.910   2.579   0.654  0.00  0.00    -0.292 OA
ATOM      6  C   UNL d   1      -1.721   0.743  -0.263  0.00  0.00     0.277 C 
ATOM      7  C   UNL d   1      -1.893  -0.721   0.142  0.00  0.00     0.331 C 
ATOM      8  O   UNL d   1      -3.007  -1.308  -0.488  0.00  0.00    -0.350 OA
ATOM      9  O   UNL d   1      -0.741  -1.544   0.087  0.00  0.00    -0.345 OA
ATOM     10  C   UNL d   1       0.358  -0.916  -0.551  0.00  0.00     0.187 C 
ATOM     11  C   UNL d   1       1.616  -1.792  -0.414  0.00  0.00     0.183 C 
ATOM     12  C   UNL d   1       2.875  -0.981  -0.754  0.00  0.00     0.247 C 
ATOM     13  C   UNL d   1       3.115   0.233   0.163  0.00  0.00     0.184 C 
ATOM     14  C   UNL d   1       1.799   0.772   0.769  0.00  0.00     0.247 C 
ATOM     15  C   UNL d   1       0.582   0.587  -0.153  0.00  0.00     0.190 C 
ATOM     16  O   UNL d   1      -0.565   1.239   0.371  0.00  0.00    -0.335 OA
ENDROOT
BRANCH  12  17
ATOM     17  N   UNL d   1       4.067  -1.813  -0.943  0.00  0.00    -0.070 N 
ATOM     18  C   UNL d   1       4.562  -2.312   0.335  0.00  0.00     0.267 C 
ATOM     19  HN2 UNL d   1       3.897  -2.571  -1.603  1.00  0.00     0.277 HD
ATOM     20  HN1 UNL d   1       4.793  -1.318  -1.460  1.00  0.00     0.277 HD
ENDBRANCH  12  17
BRANCH  11  21
ATOM     21  O   UNL d   1       1.704  -2.315   0.881  0.00  0.00    -0.391 OA
ATOM     22  HO  UNL d   1       2.481  -2.856   0.966  1.00  0.00     0.210 HD
ENDBRANCH  11  21
BRANCH  13  23
ATOM     23  O   UNL d   1       3.791   1.218  -0.560  0.00  0.00    -0.391 OA
ATOM     24  HO  UNL d   1       3.939   1.967   0.005  1.00  0.00     0.210 HD
ENDBRANCH  13  23
BRANCH  14  25
ATOM     25  N   UNL d   1       1.926   2.116   1.350  0.00  0.00    -0.070 N 
ATOM     26  C   UNL d   1       1.892   3.145   0.316  0.00  0.00     0.267 C 
ATOM     27  HN2 UNL d   1       1.221   2.282   2.068  1.00  0.00     0.277 HD
ATOM     28  HN1 UNL d   1       2.761   2.195   1.931  1.00  0.00     0.277 HD
ENDBRANCH  14  25
BRANCH   6  29
ATOM     29  O   UNL d   1      -1.636   0.879  -1.657  0.00  0.00    -0.356 OA
ATOM     30  HO  UNL d   1      -0.851   0.434  -1.954  1.00  0.00     0.213 HD
ENDBRANCH   6  29
TORSDOF 5
