REMARK  4 active torsions:
REMARK  status: ('A' for Active; 'I' for Inactive)
REMARK    1  A    between atoms: O_2  and  C_3 
REMARK    2  A    between atoms: C_5  and  O_6 
REMARK    3  A    between atoms: C_13  and  O_14 
REMARK    4  A    between atoms: C_16  and  O_17 
ROOT
ATOM      1  C   UNL d   1       4.236   0.021  -0.290  0.00  0.00     0.073 A 
ATOM      2  C   UNL d   1       3.615   1.245  -0.591  0.00  0.00     0.074 A 
ATOM      3  C   UNL d   1       2.225   1.378  -0.520  0.00  0.00     0.084 A 
ATOM      4  C   UNL d   1       1.443   0.274  -0.143  0.00  0.00     0.066 A 
ATOM      5  C   UNL d   1       0.051   0.312  -0.044  0.00  0.00     0.109 A 
ATOM      6  O   UNL d   1      -0.761   1.329  -0.271  0.00  0.00    -0.308 OA
ATOM      7  C   UNL d   1      -1.984   0.890  -0.050  0.00  0.00     0.090 A 
ATOM      8  C   UNL d   1      -3.173   1.606  -0.161  0.00  0.00     0.077 A 
ATOM      9  C   UNL d   1      -4.374   0.931   0.127  0.00  0.00     0.101 A 
ATOM     10  C   UNL d   1      -4.360  -0.432   0.515  0.00  0.00     0.099 A 
ATOM     11  C   UNL d   1      -3.145  -1.133   0.620  0.00  0.00     0.054 A 
ATOM     12  C   UNL d   1      -1.976  -0.435   0.329  0.00  0.00     0.020 A 
ATOM     13  C   UNL d   1      -0.654  -0.807   0.331  0.00  0.00     0.087 A 
ATOM     14  C   UNL d   1       0.004  -2.000   0.620  0.00  0.00     0.302 A 
ATOM     15  O   UNL d   1      -0.635  -3.029   0.964  0.00  0.00    -0.259 OA
ATOM     16  O   UNL d   1       1.336  -2.033   0.525  0.00  0.00    -0.274 OA
ATOM     17  C   UNL d   1       2.066  -0.968   0.163  0.00  0.00     0.098 A 
ATOM     18  C   UNL d   1       3.456  -1.077   0.085  0.00  0.00     0.075 A 
ENDROOT
BRANCH   1  19
ATOM     19  O   UNL d   1       5.624  -0.129  -0.356  0.00  0.00    -0.356 OA
ATOM     20  C   UNL d   1       6.495   0.931  -0.727  0.00  0.00     0.210 C 
ENDBRANCH   1  19
BRANCH   3  21
ATOM     21  O   UNL d   1       1.644   2.603  -0.824  0.00  0.00    -0.360 OA
ATOM     22  HO  UNL d   1       0.699   2.694  -0.776  1.00  0.00     0.217 HD
ENDBRANCH   3  21
BRANCH   9  23
ATOM     23  O   UNL d   1      -5.580   1.613   0.026  0.00  0.00    -0.358 OA
ATOM     24  HO  UNL d   1      -6.391   1.157   0.220  1.00  0.00     0.217 HD
ENDBRANCH   9  23
BRANCH  10  25
ATOM     25  O   UNL d   1      -5.552  -1.088   0.796  0.00  0.00    -0.358 OA
ATOM     26  HO  UNL d   1      -5.542  -2.002   1.056  1.00  0.00     0.217 HD
ENDBRANCH  10  25
TORSDOF 4
