REMARK  Name = fda_6515
REMARK  8 active torsions:
REMARK  status: ('A' for Active; 'I' for Inactive)
REMARK    1  A    between atoms: O_2  and  C_3
REMARK    2  A    between atoms: C_5  and  N_6
REMARK    3  A    between atoms: C_9  and  N_11
REMARK    4  A    between atoms: C_14  and  N_15
REMARK    5  A    between atoms: C_16  and  C_18
REMARK    6  A    between atoms: C_21  and  N_22
REMARK    7  A    between atoms: N_28  and  C_29
REMARK    8  A    between atoms: C_36  and  C_37
REMARK                            x       y       z     vdW  Elec       q    Type
REMARK                         _______ _______ _______ _____ _____    ______ ____
ROOT
ATOM      1  C   UNL A   1       2.486  -1.822   1.542  0.00  0.00    +0.155 A 
ATOM      2  C   UNL A   1       3.868  -1.647   1.396  0.00  0.00    +0.054 A 
ATOM      3  C   UNL A   1       4.397  -0.634   0.582  0.00  0.00    +0.067 A 
ATOM      4  C   UNL A   1       3.508   0.235  -0.092  0.00  0.00    +0.088 A 
ATOM      5  C   UNL A   1       2.126   0.053   0.063  0.00  0.00    +0.037 A 
ATOM      6  C   UNL A   1       1.606  -0.965   0.869  0.00  0.00    +0.109 A 
ENDROOT
BRANCH   6   7
ATOM      7  N   UNL A   1       0.190  -1.157   1.019  0.00  0.00    -0.174 NA
ATOM      8  C   UNL A   1      -0.862  -0.340   0.486  0.00  0.00    +0.242 A 
ATOM      9  N   UNL A   1      -0.591   0.811  -0.187  0.00  0.00    -0.210 NA
ATOM     10  C   UNL A   1      -1.591   1.585  -0.680  0.00  0.00    +0.105 A 
ATOM     11  C   UNL A   1      -2.918   1.206  -0.496  0.00  0.00    +0.057 A 
ATOM     12  C   UNL A   1      -3.189   0.026   0.206  0.00  0.00    +0.156 A 
ATOM     13  N   UNL A   1      -4.529  -0.444   0.414  0.00  0.00    -0.194 NA
ATOM     14  N   UNL A   1      -2.153  -0.720   0.674  0.00  0.00    -0.195 NA
BRANCH  13  15
ATOM     15  C   UNL A   1      -5.766   0.252   0.178  0.00  0.00    +0.071 A 
ATOM     16  C   UNL A   1      -5.777   1.631  -0.075  0.00  0.00    +0.030 A 
ATOM     17  C   UNL A   1      -6.974   2.318  -0.276  0.00  0.00    +0.086 A 
ATOM     18 CL   UNL A   1      -6.935   4.040  -0.597  0.00  0.00    -0.080 Cl
ATOM     19  C   UNL A   1      -8.187   1.629  -0.215  0.00  0.00    +0.150 A 
ATOM     20  F   UNL A   1      -9.360   2.281  -0.402  0.00  0.00    -0.203 F 
ATOM     21  C   UNL A   1      -8.194   0.258   0.040  0.00  0.00    +0.030 A 
ATOM     22  C   UNL A   1      -6.997  -0.453   0.241  0.00  0.00    +0.023 A 
BRANCH  22  23
ATOM     23  C   UNL A   1      -7.056  -1.946   0.518  0.00  0.00    +0.147 C 
ATOM     24  C   UNL A   1      -6.288  -2.710  -0.546  0.00  0.00    +0.038 C 
ATOM     25  C   UNL A   1      -6.460  -2.254   1.881  0.00  0.00    +0.038 C 
ATOM     26  O   UNL A   1      -8.378  -2.401   0.510  0.00  0.00    -0.221 OA
ENDBRANCH  22  23
ENDBRANCH  13  15
ENDBRANCH   6   7
BRANCH   3  27
ATOM     27  N   UNL A   1       5.829  -0.512   0.465  0.00  0.00    -0.305 N 
ATOM     28  C   UNL A   1       6.744  -1.083   1.439  0.00  0.00    +0.092 C 
ATOM     29  C   UNL A   1       8.129  -0.990   0.828  0.00  0.00    +0.039 C 
ATOM     30  C   UNL A   1       7.991  -0.069  -0.388  0.00  0.00    +0.079 C 
ATOM     31  C   UNL A   1       6.509   0.026  -0.699  0.00  0.00    +0.107 C 
BRANCH  30  32
ATOM     32  N   UNL A   1       8.761  -0.499  -1.565  0.00  0.00    -0.270 NA
ATOM     33  C   UNL A   1      10.176  -0.320  -1.283  0.00  0.00    +0.090 C 
ATOM     34  C   UNL A   1       8.545  -1.912  -1.862  0.00  0.00    +0.090 C 
ENDBRANCH  30  32
ENDBRANCH   3  27
BRANCH   4  35
ATOM     35  N   UNL A   1       4.015   1.318  -0.888  0.00  0.00    -0.174 NA
ATOM     36  C   UNL A   1       3.257   2.225  -1.700  0.00  0.00    +0.269 C 
ATOM     37  O   UNL A   1       2.008   2.099  -1.822  0.00  0.00    -0.268 OA
BRANCH  36  38
ATOM     38  C   UNL A   1       3.966   3.298  -2.406  0.00  0.00    +0.060 C 
ATOM     39  C   UNL A   1       3.332   4.167  -3.182  0.00  0.00    +0.005 C 
ENDBRANCH  36  38
ENDBRANCH   4  35
BRANCH   1  41
ATOM     40  C   UNL A   1       2.793  -3.743   3.076  0.00  0.00    +0.253 C 
ATOM     41  O   UNL A   1       1.968  -2.839   2.352  0.00  0.00    -0.470 OA
ENDBRANCH   1  41
TORSDOF 8
