REMARK  6 active torsions:
REMARK  status: ('A' for Active; 'I' for Inactive)
REMARK    1  A    between atoms: C_6  and  O_8 
REMARK    2  A    between atoms: O_8  and  C_9 
REMARK    3  A    between atoms: C_9  and  C_11 
REMARK    4  A    between atoms: C_11  and  C_12 
REMARK    5  A    between atoms: C_11  and  C_18 
REMARK    6  A    between atoms: C_11  and  O_24 
ROOT
ATOM      1  C   UNL d   1      -1.176  -0.274  -0.976  0.00  0.00     0.201 C 
ENDROOT
BRANCH   1   2
ATOM      2  C   UNL d   1       0.202  -0.443  -0.375  0.00  0.00     0.303 C 
ATOM      3  O   UNL d   1       0.334  -0.754   0.842  0.00  0.00    -0.261 OA
BRANCH   2   4
ATOM      4  O   UNL d   1       1.330  -0.180  -1.165  0.00  0.00    -0.311 OA
BRANCH   4   5
ATOM      5  C   UNL d   1       2.674  -0.249  -0.688  0.00  0.00     0.158 C 
ATOM      6  C   UNL d   1       3.037  -1.674  -0.249  0.00  0.00     0.036 C 
ATOM      7  C   UNL d   1       4.053  -1.696   0.894  0.00  0.00     0.030 C 
ATOM      8  C   UNL d   1       5.017  -0.514   0.779  0.00  0.00     0.236 C 
ATOM      9  N   UNL d   1       4.329   0.785   0.872  0.00  0.00    -0.072 N 
ATOM     10  C   UNL d   1       5.074   1.752   0.086  0.00  0.00     0.272 C 
ATOM     11  C   UNL d   1       2.930   0.786   0.415  0.00  0.00     0.268 C 
ATOM     12  C   UNL d   1       4.355   1.223   2.256  0.00  0.00     0.272 C 
ENDBRANCH   4   5
ENDBRANCH   2   4
ENDBRANCH   1   2
BRANCH   1  13
ATOM     13  C   UNL d   1      -2.155  -1.240  -0.325  0.00  0.00    -0.009 A 
ATOM     14  C   UNL d   1      -2.349  -2.523  -0.866  0.00  0.00     0.011 A 
ATOM     15  C   UNL d   1      -3.206  -3.436  -0.245  0.00  0.00     0.001 A 
ATOM     16  C   UNL d   1      -3.868  -3.083   0.933  0.00  0.00     0.000 A 
ATOM     17  C   UNL d   1      -3.670  -1.820   1.494  0.00  0.00     0.001 A 
ATOM     18  C   UNL d   1      -2.813  -0.907   0.874  0.00  0.00     0.011 A 
ENDBRANCH   1  13
BRANCH   1  19
ATOM     19  C   UNL d   1      -1.658   1.162  -0.833  0.00  0.00    -0.009 A 
ATOM     20  C   UNL d   1      -2.595   1.679  -1.744  0.00  0.00     0.011 A 
ATOM     21  C   UNL d   1      -3.091   2.978  -1.598  0.00  0.00     0.001 A 
ATOM     22  C   UNL d   1      -2.666   3.771  -0.530  0.00  0.00     0.000 A 
ATOM     23  C   UNL d   1      -1.751   3.265   0.396  0.00  0.00     0.001 A 
ATOM     24  C   UNL d   1      -1.255   1.967   0.249  0.00  0.00     0.011 A 
ENDBRANCH   1  19
BRANCH   1  25
ATOM     25  O   UNL d   1      -1.083  -0.574  -2.342  0.00  0.00    -0.371 OA
ATOM     26  HO  UNL d   1      -1.949  -0.468  -2.719  1.00  0.00     0.212 HD
ENDBRANCH   1  25
TORSDOF 6
