REMARK  15 active torsions:
REMARK  status: ('A' for Active; 'I' for Inactive)
REMARK    1  A    between atoms: C_2  and  C_3 
REMARK    2  A    between atoms: C_3  and  C_4 
REMARK    3  A    between atoms: C_4  and  C_5 
REMARK    4  A    between atoms: C_5  and  C_6 
REMARK    5  A    between atoms: C_6  and  O_7 
REMARK    6  A    between atoms: C_9  and  C_6 
REMARK    7  A    between atoms: C_10  and  C_11 
REMARK    8  A    between atoms: C_12  and  O_13 
REMARK    9  A    between atoms: C_16  and  O_17 
REMARK   10  A    between atoms: C_19  and  C_20 
REMARK   11  A    between atoms: C_21  and  C_20 
REMARK   12  A    between atoms: C_22  and  C_23 
REMARK   13  A    between atoms: C_23  and  C_24 
REMARK   14  A    between atoms: C_24  and  C_25 
REMARK   15  A    between atoms: C_25  and  C_26 
ROOT
ATOM      1  C   UNL d   1      -0.555  -1.149   0.591  0.00  0.00     0.043 C 
ATOM      2  C   UNL d   1      -0.559  -0.424   1.925  0.00  0.00     0.128 C 
ATOM      3  C   UNL d   1       0.884  -0.343   2.364  0.00  0.00     0.064 C 
ATOM      4  C   UNL d   1       1.572  -1.537   1.738  0.00  0.00     0.125 C 
ATOM      5  C   UNL d   1       0.766  -1.894   0.497  0.00  0.00     0.028 C 
ENDROOT
BRANCH   1   6
ATOM      6  C   UNL d   1      -1.690  -2.127   0.522  0.00  0.00    -0.021 C 
ATOM      7  C   UNL d   1      -2.950  -1.776   0.234  0.00  0.00     0.001 C 
BRANCH   7   8
ATOM      8  C   UNL d   1      -3.360  -0.370  -0.070  0.00  0.00     0.140 C 
BRANCH   8   9
ATOM      9  C   UNL d   1      -4.876  -0.269  -0.046  0.00  0.00     0.036 C 
BRANCH   9  10
ATOM     10  C   UNL d   1      -5.325   1.183  -0.069  0.00  0.00     0.003 C 
BRANCH  10  11
ATOM     11  C   UNL d   1      -5.075   1.836   1.281  0.00  0.00    -0.000 C 
BRANCH  11  12
ATOM     12  C   UNL d   1      -5.464   3.303   1.241  0.00  0.00    -0.005 C 
ATOM     13  C   UNL d   1      -4.416   4.107   0.496  0.00  0.00     0.005 C 
ENDBRANCH  11  12
ENDBRANCH  10  11
ENDBRANCH   9  10
ENDBRANCH   8   9
BRANCH   8  14
ATOM     14  O   UNL d   1      -2.882  -0.001  -1.329  0.00  0.00    -0.392 OA
ATOM     15  HO  UNL d   1      -1.934  -0.064  -1.344  1.00  0.00     0.210 HD
ENDBRANCH   8  14
ENDBRANCH   7   8
ENDBRANCH   1   6
BRANCH   2  16
ATOM     16  O   UNL d   1      -1.076   0.862   1.770  0.00  0.00    -0.395 OA
ATOM     17  HO  UNL d   1      -1.079   1.315   2.605  1.00  0.00     0.210 HD
ENDBRANCH   2  16
BRANCH   5  18
ATOM     18  C   UNL d   1       1.500  -1.444  -0.754  0.00  0.00     0.034 C 
BRANCH  18  19
ATOM     19  C   UNL d   1       2.641  -2.368  -1.054  0.00  0.00    -0.030 C 
ATOM     20  C   UNL d   1       3.527  -2.133  -2.027  0.00  0.00    -0.031 C 
BRANCH  20  21
ATOM     21  C   UNL d   1       3.492  -0.915  -2.902  0.00  0.00     0.027 C 
BRANCH  21  22
ATOM     22  C   UNL d   1       4.361   0.193  -2.326  0.00  0.00     0.014 C 
BRANCH  22  23
ATOM     23  C   UNL d   1       3.626   0.940  -1.227  0.00  0.00     0.113 C 
BRANCH  23  24
ATOM     24  C   UNL d   1       4.512   1.982  -0.644  0.00  0.00     0.172 C 
ATOM     25  O   UNL d   1       4.605   3.230  -1.245  0.00  0.00    -0.648 OA
ATOM     26  O   UNL d   1       5.201   1.723   0.377  0.00  0.00    -0.648 OA
ENDBRANCH  23  24
ENDBRANCH  22  23
ENDBRANCH  21  22
ENDBRANCH  20  21
ENDBRANCH  18  19
ENDBRANCH   5  18
BRANCH   4  27
ATOM     27  O   UNL d   1       1.542  -2.609   2.630  0.00  0.00    -0.395 OA
ATOM     28  HO  UNL d   1       1.974  -3.359   2.237  1.00  0.00     0.210 HD
ENDBRANCH   4  27
TORSDOF 15
