REMARK  Name = fda_5929
REMARK  11 active torsions:
REMARK  status: ('A' for Active; 'I' for Inactive)
REMARK    1  A    between atoms: C_2  and  C_3
REMARK    2  A    between atoms: C_3  and  S_4
REMARK    3  A    between atoms: S_4  and  C_6
REMARK    4  A    between atoms: C_6  and  C_7
REMARK    5  A    between atoms: N_12  and  C_13
REMARK    6  A    between atoms: C_13  and  C_14
REMARK    7  A    between atoms: C_15  and  C_16
REMARK    8  A    between atoms: C_16  and  O_17
REMARK    9  A    between atoms: O_17  and  C_18
REMARK   10  A    between atoms: C_22  and  C_23
REMARK   11  A    between atoms: C_23  and  N_24
REMARK                            x       y       z     vdW  Elec       q    Type
REMARK                         _______ _______ _______ _____ _____    ______ ____
ROOT
ATOM      1  C   UNL A   1       1.219  -0.085   0.712  0.00  0.00    -0.004 C 
ATOM      2  C   UNL A   1      -0.047   0.168   0.369  0.00  0.00    +0.018 C 
ENDROOT
BRANCH   1   3
ATOM      3  C   UNL A   1       1.885  -1.396   0.443  0.00  0.00    +0.141 C 
BRANCH   3   6
ATOM      4  O   UNL A   1       3.857  -0.288  -1.291  0.00  0.00    -0.268 OA
ATOM      5  C   UNL A   1       4.236  -0.710  -0.165  0.00  0.00    +0.301 C 
ATOM      6  N   UNL A   1       3.303  -1.301   0.743  0.00  0.00    -0.196 NA
BRANCH   5   7
ATOM      7  C   UNL A   1       5.668  -0.589   0.225  0.00  0.00    +0.333 C 
BRANCH   7   8
ATOM      8  S   UNL A   1       6.059   1.110   0.583  0.00  0.00    +0.002 S 
ATOM      9  O   UNL A   1       5.278   1.588   1.993  0.00  0.00    -0.616 OA
BRANCH   8  10
ATOM     10  C   UNL A   1       7.817   1.305   0.786  0.00  0.00    +0.311 C 
BRANCH  10  11
ATOM     11  C   UNL A   1       8.508   1.033  -0.505  0.00  0.00    +0.182 A 
ATOM     12  C   UNL A   1       9.222  -0.108  -0.797  0.00  0.00    +0.042 A 
ATOM     13  C   UNL A   1       9.662   0.077  -2.096  0.00  0.00    +0.044 A 
ATOM     14  C   UNL A   1       9.185   1.311  -2.506  0.00  0.00    +0.179 A 
ATOM     15  O   UNL A   1       8.499   1.850  -1.526  0.00  0.00    -0.450 OA
ENDBRANCH  10  11
ENDBRANCH   8  10
ENDBRANCH   7   8
ENDBRANCH   5   7
ENDBRANCH   3   6
ENDBRANCH   1   3
BRANCH   2  16
ATOM     16  C   UNL A   1      -0.915  -0.829  -0.335  0.00  0.00    +0.233 C 
BRANCH  16  17
ATOM     17  O   UNL A   1      -2.199  -0.267  -0.575  0.00  0.00    -0.455 OA
BRANCH  17  18
ATOM     18  C   UNL A   1      -3.189  -0.215   0.408  0.00  0.00    +0.225 A 
ATOM     19  N   UNL A   1      -3.018  -0.836   1.610  0.00  0.00    -0.210 NA
ATOM     20  C   UNL A   1      -3.974  -0.797   2.576  0.00  0.00    +0.102 A 
ATOM     21  C   UNL A   1      -5.168  -0.109   2.352  0.00  0.00    +0.018 A 
ATOM     22  C   UNL A   1      -5.368   0.532   1.126  0.00  0.00    +0.000 A 
ATOM     23  C   UNL A   1      -4.371   0.481   0.147  0.00  0.00    +0.055 A 
BRANCH  22  24
ATOM     24  C   UNL A   1      -6.644   1.289   0.873  0.00  0.00    +0.099 C 
BRANCH  24  25
ATOM     25  N   UNL A   1      -7.673   0.517   0.163  0.00  0.00    -0.269 NA
ATOM     26  C   UNL A   1      -8.029  -0.689   0.929  0.00  0.00    +0.072 C 
ATOM     27  C   UNL A   1      -8.817  -1.714   0.098  0.00  0.00    +0.017 C 
ATOM     28  C   UNL A   1      -9.432  -1.070  -1.142  0.00  0.00    +0.003 C 
ATOM     29  C   UNL A   1      -8.351  -0.425  -2.013  0.00  0.00    +0.017 C 
ATOM     30  C   UNL A   1      -7.208   0.168  -1.182  0.00  0.00    +0.072 C 
ENDBRANCH  24  25
ENDBRANCH  22  24
ENDBRANCH  17  18
ENDBRANCH  16  17
ENDBRANCH   2  16
TORSDOF 11
