REMARK  18 active torsions:
REMARK  status: ('A' for Active; 'I' for Inactive)
REMARK       I    between atoms: C_2  and  N_4 
REMARK    1  A    between atoms: N_4  and  C_5 
REMARK    2  A    between atoms: N_4  and  C_12 
REMARK    3  A    between atoms: C_5  and  C_6 
REMARK    4  A    between atoms: C_6  and  C_7 
REMARK    5  A    between atoms: C_6  and  O_10 
REMARK    6  A    between atoms: C_7  and  O_8 
REMARK    7  A    between atoms: C_14  and  C_31 
REMARK    8  A    between atoms: C_16  and  C_19 
REMARK       I    between atoms: C_19  and  N_21 
REMARK    9  A    between atoms: N_21  and  C_23 
REMARK   10  A    between atoms: C_23  and  C_24 
REMARK   11  A    between atoms: C_24  and  C_25 
REMARK   12  A    between atoms: C_24  and  O_28 
REMARK   13  A    between atoms: C_25  and  O_26 
REMARK       I    between atoms: C_31  and  N_33 
REMARK   14  A    between atoms: N_33  and  C_35 
REMARK   15  A    between atoms: C_35  and  C_36 
REMARK   16  A    between atoms: C_36  and  C_37 
REMARK   17  A    between atoms: C_36  and  O_40 
REMARK   18  A    between atoms: C_37  and  O_38 
ROOT
ATOM      1  C   UNL d   1       0.574  -1.906  -0.328  0.00  0.00     0.072 A 
ATOM      2  C   UNL d   1       1.429  -0.831  -0.635  0.00  0.00     0.051 A 
ATOM      3  C   UNL d   1       0.919   0.482  -0.689  0.00  0.00     0.068 A 
ATOM      4  C   UNL d   1      -0.449   0.718  -0.442  0.00  0.00     0.040 A 
ATOM      5  C   UNL d   1      -1.311  -0.363  -0.162  0.00  0.00     0.068 A 
ATOM      6  C   UNL d   1      -0.797  -1.675  -0.108  0.00  0.00     0.051 A 
ATOM      7  I   UNL d   1      -2.101  -3.343   0.194  0.00  0.00    -0.041 I 
ATOM      8  I   UNL d   1      -1.188   2.729  -0.375  0.00  0.00    -0.042 I 
ATOM      9  I   UNL d   1       3.492  -1.211  -1.063  0.00  0.00    -0.041 I 
ENDROOT
BRANCH   1  10
ATOM     10  N   UNL d   1       1.097  -3.243  -0.249  0.00  0.00    -0.313 N 
ATOM     11  C   UNL d   1       1.350  -4.015  -1.437  0.00  0.00     0.220 C 
ATOM     12  C   UNL d   1       1.020  -3.479  -2.790  0.00  0.00     0.117 C 
ATOM     13  O   UNL d   1       1.848  -5.169  -1.350  0.00  0.00    -0.273 OA
BRANCH  10  14
ATOM     14  C   UNL d   1       1.246  -3.873   1.062  0.00  0.00     0.166 C 
BRANCH  14  15
ATOM     15  C   UNL d   1       2.546  -3.451   1.732  0.00  0.00     0.160 C 
BRANCH  15  16
ATOM     16  C   UNL d   1       2.396  -2.104   2.429  0.00  0.00     0.197 C 
BRANCH  16  17
ATOM     17  O   UNL d   1       1.442  -2.178   3.447  0.00  0.00    -0.398 OA
ATOM     18  HO  UNL d   1       1.348  -1.338   3.881  1.00  0.00     0.209 HD
ENDBRANCH  16  17
ENDBRANCH  15  16
BRANCH  15  19
ATOM     19  O   UNL d   1       2.933  -4.422   2.656  0.00  0.00    -0.392 OA
ATOM     20  HO  UNL d   1       3.745  -4.159   3.073  1.00  0.00     0.210 HD
ENDBRANCH  15  19
ENDBRANCH  14  15
ENDBRANCH  10  14
ENDBRANCH   1  10
BRANCH   5  21
ATOM     21  C   UNL d   1      -2.745  -0.125   0.076  0.00  0.00     0.254 C 
ATOM     22  O   UNL d   1      -3.258  -0.439   1.184  0.00  0.00    -0.268 OA
ATOM     23  N   UNL d   1      -3.554   0.435  -0.962  0.00  0.00    -0.354 N 
ATOM     24  HN  UNL d   1      -3.122   0.629  -1.865  1.00  0.00     0.162 HD
BRANCH  23  25
ATOM     25  C   UNL d   1      -4.968   0.740  -0.790  0.00  0.00     0.156 C 
BRANCH  25  26
ATOM     26  C   UNL d   1      -5.143   2.106  -0.141  0.00  0.00     0.159 C 
BRANCH  26  27
ATOM     27  C   UNL d   1      -6.579   2.570  -0.300  0.00  0.00     0.197 C 
BRANCH  27  28
ATOM     28  O   UNL d   1      -6.828   2.900  -1.633  0.00  0.00    -0.398 OA
ATOM     29  HO  UNL d   1      -7.727   3.191  -1.732  1.00  0.00     0.209 HD
ENDBRANCH  27  28
ENDBRANCH  26  27
BRANCH  26  30
ATOM     30  O   UNL d   1      -4.835   2.030   1.217  0.00  0.00    -0.392 OA
ATOM     31  HO  UNL d   1      -4.945   2.883   1.622  1.00  0.00     0.210 HD
ENDBRANCH  26  30
ENDBRANCH  25  26
ENDBRANCH  23  25
ENDBRANCH   5  21
BRANCH   3  32
ATOM     32  C   UNL d   1       1.818   1.610  -0.989  0.00  0.00     0.254 C 
ATOM     33  O   UNL d   1       1.646   2.287  -2.039  0.00  0.00    -0.268 OA
ATOM     34  N   UNL d   1       2.873   1.939  -0.080  0.00  0.00    -0.354 N 
ATOM     35  HN  UNL d   1       3.010   1.352   0.743  1.00  0.00     0.162 HD
BRANCH  34  36
ATOM     36  C   UNL d   1       3.759   3.078  -0.281  0.00  0.00     0.156 C 
BRANCH  36  37
ATOM     37  C   UNL d   1       3.026   4.388  -0.020  0.00  0.00     0.159 C 
BRANCH  37  38
ATOM     38  C   UNL d   1       2.797   4.594   1.468  0.00  0.00     0.197 C 
BRANCH  38  39
ATOM     39  O   UNL d   1       1.752   3.784   1.912  0.00  0.00    -0.398 OA
ATOM     40  HO  UNL d   1       1.608   3.913   2.842  1.00  0.00     0.209 HD
ENDBRANCH  38  39
ENDBRANCH  37  38
BRANCH  37  41
ATOM     41  O   UNL d   1       3.794   5.442  -0.510  0.00  0.00    -0.392 OA
ATOM     42  HO  UNL d   1       3.337   6.259  -0.348  1.00  0.00     0.210 HD
ENDBRANCH  37  41
ENDBRANCH  36  37
ENDBRANCH  34  36
ENDBRANCH   3  32
TORSDOF 18
