REMARK  Name = fda_4789
REMARK  6 active torsions:
REMARK  status: ('A' for Active; 'I' for Inactive)
REMARK    1  A    between atoms: C_3  and  C_4
REMARK    2  A    between atoms: C_3  and  N_20
REMARK    3  A    between atoms: C_4  and  O_5
REMARK    4  A    between atoms: O_5  and  C_6
REMARK    5  A    between atoms: C_6  and  C_7
REMARK    6  A    between atoms: C_6  and  C_14
REMARK                            x       y       z     vdW  Elec       q    Type
REMARK                         _______ _______ _______ _____ _____    ______ ____
ROOT
ATOM      1  C   UNL A   1      -0.882  -0.435   0.705  0.00  0.00    +0.177 C 
ENDROOT
BRANCH   1   2
ATOM      2  C   UNL A   1       0.508   0.140   0.632  0.00  0.00    +0.010 A 
ATOM      3  C   UNL A   1       0.970   0.932   1.689  0.00  0.00    -0.001 A 
ATOM      4  C   UNL A   1       2.240   1.513   1.631  0.00  0.00    +0.011 A 
ATOM      5  C   UNL A   1       3.051   1.310   0.511  0.00  0.00    +0.058 A 
ATOM      6  C   UNL A   1       2.593   0.528  -0.552  0.00  0.00    +0.011 A 
ATOM      7  C   UNL A   1       1.323  -0.054  -0.494  0.00  0.00    -0.001 A 
ATOM      8 CL   UNL A   1       4.640   2.040   0.437  0.00  0.00    -0.082 Cl
ENDBRANCH   1   2
BRANCH   1   9
ATOM      9  C   UNL A   1      -1.029  -1.874   0.292  0.00  0.00    +0.090 A 
ATOM     10  C   UNL A   1      -1.386  -2.827   1.250  0.00  0.00    +0.018 A 
ATOM     11  C   UNL A   1      -1.523  -4.162   0.868  0.00  0.00    +0.003 A 
ATOM     12  C   UNL A   1      -1.305  -4.532  -0.461  0.00  0.00    +0.021 A 
ATOM     13  C   UNL A   1      -0.951  -3.552  -1.391  0.00  0.00    +0.099 A 
ATOM     14  N   UNL A   1      -0.822  -2.256  -1.000  0.00  0.00    -0.245 NA
ENDBRANCH   1   9
BRANCH   1  15
ATOM     15  O   UNL A   1      -1.905   0.421   0.239  0.00  0.00    -0.344 OA
BRANCH  15  16
ATOM     16  C   UNL A   1      -1.742   0.625  -1.142  0.00  0.00    +0.160 C 
BRANCH  16  17
ATOM     17  C   UNL A   1      -1.885   2.102  -1.467  0.00  0.00    +0.105 C 
BRANCH  17  20
ATOM     18  C   UNL A   1       0.185   3.070  -1.960  0.00  0.00    +0.090 C 
ATOM     19  C   UNL A   1      -1.300   4.158  -0.536  0.00  0.00    +0.090 C 
ATOM     20  N   UNL A   1      -0.778   2.852  -0.895  0.00  0.00    -0.268 NA
ENDBRANCH  17  20
ENDBRANCH  16  17
ENDBRANCH  15  16
ENDBRANCH   1  15
TORSDOF 6
