REMARK  Name = fda_6860
REMARK  8 active torsions:
REMARK  status: ('A' for Active; 'I' for Inactive)
REMARK    1  A    between atoms: C_6  and  C_9
REMARK    2  A    between atoms: N_12  and  C_13
REMARK    3  A    between atoms: C_13  and  C_14
REMARK    4  A    between atoms: C_14  and  C_15
REMARK    5  A    between atoms: C_15  and  O_16
REMARK    6  A    between atoms: O_16  and  C_17
REMARK    7  A    between atoms: C_18  and  O_19
REMARK    8  A    between atoms: C_22  and  C_23
REMARK                            x       y       z     vdW  Elec       q    Type
REMARK                         _______ _______ _______ _____ _____    ______ ____
ROOT
ATOM      1  C   UNL A   1      -3.164  -1.943   0.670  0.00  0.00    +0.046 C 
ATOM      2  C   UNL A   1      -2.547  -0.817   1.504  0.00  0.00    +0.023 C 
ATOM      3  C   UNL A   1      -1.050  -0.722   1.230  0.00  0.00    +0.072 C 
ATOM      4  N   UNL A   1      -0.776  -0.353  -0.167  0.00  0.00    -0.273 NA
ATOM      5  C   UNL A   1      -1.698  -0.964  -1.145  0.00  0.00    +0.072 C 
ATOM      6  C   UNL A   1      -2.396  -2.226  -0.625  0.00  0.00    +0.023 C 
ENDROOT
BRANCH   1  12
ATOM      7  F   UNL A   1      -7.799   2.134  -1.855  0.00  0.00    -0.204 F 
ATOM      8  C   UNL A   1      -6.944   1.236  -1.312  0.00  0.00    +0.143 A 
ATOM      9  C   UNL A   1      -7.441   0.029  -0.782  0.00  0.00    +0.070 A 
ATOM     10  C   UNL A   1      -6.517  -0.857  -0.237  0.00  0.00    +0.179 A 
ATOM     11  C   UNL A   1      -5.180  -0.584  -0.208  0.00  0.00    +0.054 A 
ATOM     12  C   UNL A   1      -4.614  -1.684   0.400  0.00  0.00    +0.100 A 
ATOM     13  N   UNL A   1      -5.602  -2.559   0.701  0.00  0.00    -0.081 NA
ATOM     14  O   UNL A   1      -6.731  -2.029   0.307  0.00  0.00    -0.354 OA
ATOM     15  C   UNL A   1      -4.651   0.597  -0.722  0.00  0.00    +0.007 A 
ATOM     16  C   UNL A   1      -5.558   1.517  -1.282  0.00  0.00    +0.030 A 
ENDBRANCH   1  12
BRANCH   4  17
ATOM     17  C   UNL A   1       0.565  -0.827  -0.472  0.00  0.00    +0.076 C 
BRANCH  17  18
ATOM     18  C   UNL A   1       1.299   0.183  -1.342  0.00  0.00    +0.065 C 
BRANCH  18  19
ATOM     19  C   UNL A   1       1.624   1.447  -0.557  0.00  0.00    +0.207 C 
BRANCH  19  20
ATOM     20  O   UNL A   1       2.553   1.166   0.487  0.00  0.00    -0.472 OA
BRANCH  20  21
ATOM     21  C   UNL A   1       3.921   0.960   0.268  0.00  0.00    +0.172 A 
ATOM     22  C   UNL A   1       4.745   0.624   1.352  0.00  0.00    +0.172 A 
ATOM     23  C   UNL A   1       6.118   0.418   1.142  0.00  0.00    +0.043 A 
ATOM     24  C   UNL A   1       6.677   0.543  -0.137  0.00  0.00    +0.038 A 
ATOM     25  C   UNL A   1       5.846   0.880  -1.213  0.00  0.00    +0.006 A 
ATOM     26  C   UNL A   1       4.480   1.087  -1.013  0.00  0.00    +0.040 A 
BRANCH  24  27
ATOM     27  C   UNL A   1       8.122   0.322  -0.340  0.00  0.00    +0.174 C 
ATOM     28  C   UNL A   1       8.738   0.446  -1.692  0.00  0.00    +0.077 C 
ATOM     29  O   UNL A   1       8.860   0.024   0.636  0.00  0.00    -0.291 OA
ENDBRANCH  24  27
BRANCH  22  30
ATOM     30  O   UNL A   1       4.180   0.500   2.627  0.00  0.00    -0.468 OA
ATOM     31  C   UNL A   1       4.943   0.161   3.776  0.00  0.00    +0.253 C 
ENDBRANCH  22  30
ENDBRANCH  20  21
ENDBRANCH  19  20
ENDBRANCH  18  19
ENDBRANCH  17  18
ENDBRANCH   4  17
TORSDOF 8
