REMARK  8 active torsions:
REMARK  status: ('A' for Active; 'I' for Inactive)
REMARK    1  A    between atoms: C_2  and  C_3 
REMARK    2  A    between atoms: C_2  and  C_11 
REMARK    3  A    between atoms: C_3  and  C_4 
REMARK    4  A    between atoms: C_4  and  C_5 
REMARK    5  A    between atoms: C_5  and  C_6 
REMARK    6  A    between atoms: C_6  and  O_9 
REMARK    7  A    between atoms: C_20  and  C_21 
REMARK    8  A    between atoms: C_24  and  O_29 
ROOT
ATOM      1  C   UNL d   1       2.150  -1.048  -0.871  0.00  0.00    -0.002 C 
ATOM      2  C   UNL d   1       1.663   0.238  -1.574  0.00  0.00     0.006 C 
ATOM      3  C   UNL d   1       0.255   0.536  -1.057  0.00  0.00     0.010 C 
ATOM      4  C   UNL d   1       0.153  -0.333   0.175  0.00  0.00     0.023 C 
ATOM      5  C   UNL d   1       0.925  -1.593  -0.136  0.00  0.00    -0.033 C 
ATOM      6  C   UNL d   1       1.166  -2.345   1.183  0.00  0.00     0.010 C 
ATOM      7  C   UNL d   1      -0.179  -2.702   1.851  0.00  0.00     0.005 C 
ATOM      8  C   UNL d   1      -1.095  -1.480   2.058  0.00  0.00     0.034 C 
ATOM      9  C   UNL d   1      -1.166  -0.627   0.818  0.00  0.00    -0.075 C 
ATOM     10  C   UNL d   1      -2.307  -0.105   0.363  0.00  0.00     0.004 C 
ATOM     11  C   UNL d   1       0.171  -2.504  -1.110  0.00  0.00     0.016 C 
ENDROOT
BRANCH  10  12
ATOM     12  C   UNL d   1      -3.605  -0.353   1.004  0.00  0.00     0.008 C 
ATOM     13  C   UNL d   1      -4.757   0.162   0.557  0.00  0.00    -0.050 C 
ATOM     14  C   UNL d   1      -6.043  -0.166   1.227  0.00  0.00    -0.061 C 
ATOM     15  C   UNL d   1      -4.775   1.001  -0.698  0.00  0.00     0.070 C 
ATOM     16  C   UNL d   1      -7.255   0.680   0.976  0.00  0.00     0.041 C 
ATOM     17  C   UNL d   1      -6.107  -1.062   2.208  0.00  0.00     0.019 C 
ATOM     18  C   UNL d   1      -7.259   1.264  -0.435  0.00  0.00     0.036 C 
ATOM     19  C   UNL d   1      -5.946   1.981  -0.741  0.00  0.00     0.122 C 
BRANCH  19  20
ATOM     20  O   UNL d   1      -5.737   3.030   0.158  0.00  0.00    -0.395 OA
ATOM     21  HO  UNL d   1      -6.466   3.639   0.131  1.00  0.00     0.210 HD
ENDBRANCH  19  20
ENDBRANCH  10  12
BRANCH   1  22
ATOM     22  C   UNL d   1       3.377  -0.800   0.030  0.00  0.00    -0.014 C 
ATOM     23  C   UNL d   1       3.244   0.392   0.972  0.00  0.00     0.010 C 
BRANCH  22  24
ATOM     24  C   UNL d   1       4.700  -0.805  -0.739  0.00  0.00     0.005 C 
BRANCH  24  25
ATOM     25  C   UNL d   1       4.819   0.311  -1.774  0.00  0.00     0.003 C 
BRANCH  25  26
ATOM     26  C   UNL d   1       5.224   1.639  -1.138  0.00  0.00     0.037 C 
BRANCH  26  27
ATOM     27  C   UNL d   1       6.726   1.758  -0.879  0.00  0.00     0.051 C 
ATOM     28  C   UNL d   1       7.503   1.684  -2.181  0.00  0.00     0.045 C 
ATOM     29  C   UNL d   1       6.999   3.098  -0.228  0.00  0.00     0.045 C 
BRANCH  27  30
ATOM     30  O   UNL d   1       7.157   0.745  -0.021  0.00  0.00    -0.391 OA
ATOM     31  HO  UNL d   1       8.090   0.819   0.140  1.00  0.00     0.210 HD
ENDBRANCH  27  30
ENDBRANCH  26  27
ENDBRANCH  25  26
ENDBRANCH  24  25
ENDBRANCH  22  24
ENDBRANCH   1  22
TORSDOF 8
