REMARK  Name = fda_3818
REMARK  10 active torsions:
REMARK  status: ('A' for Active; 'I' for Inactive)
REMARK    1  A    between atoms: C_5  and  C_9
REMARK    2  A    between atoms: C_9  and  N_10
REMARK    3  A    between atoms: N_10  and  C_11
REMARK    4  A    between atoms: N_10  and  C_13
REMARK    5  A    between atoms: C_14  and  C_15
REMARK    6  A    between atoms: C_14  and  S_18
REMARK    7  A    between atoms: C_15  and  C_16
REMARK    8  A    between atoms: S_18  and  S_19
REMARK    9  A    between atoms: S_19  and  C_20
REMARK   10  A    between atoms: C_20  and  C_21
REMARK                            x       y       z     vdW  Elec       q    Type
REMARK                         _______ _______ _______ _____ _____    ______ ____
ROOT
ATOM      1  C   UNL A   1      -0.549   0.004   1.873  0.00  0.00    +0.030 C 
ATOM      2  C   UNL A   1       0.715  -0.419   1.678  0.00  0.00    +0.025 C 
ATOM      3  C   UNL A   1      -1.583  -0.906   2.458  0.00  0.00    +0.047 C 
ENDROOT
BRANCH   1   4
ATOM      4  N   UNL A   1      -0.934   1.346   1.548  0.00  0.00    -0.279 N 
BRANCH   4   5
ATOM      5  C   UNL A   1      -1.192   2.319   2.601  0.00  0.00    +0.278 C 
ATOM      6  O   UNL A   1      -2.332   1.956   3.321  0.00  0.00    -0.196 OA
ENDBRANCH   4   5
BRANCH   4   7
ATOM      7  C   UNL A   1      -1.107   1.747   0.158  0.00  0.00    +0.124 C 
BRANCH   7  12
ATOM      8  C   UNL A   1      -6.358   0.283  -1.624  0.00  0.00    +0.074 C 
ATOM      9  C   UNL A   1      -4.994   0.659  -1.171  0.00  0.00    +0.141 A 
ATOM     10  N   UNL A   1      -4.798   1.826  -0.503  0.00  0.00    -0.229 NA
ATOM     11  C   UNL A   1      -3.559   2.187  -0.080  0.00  0.00    +0.101 A 
ATOM     12  C   UNL A   1      -2.465   1.358  -0.332  0.00  0.00    +0.052 A 
ATOM     13  C   UNL A   1      -2.687   0.155  -1.015  0.00  0.00    +0.170 A 
ATOM     14  N   UNL A   1      -3.943  -0.167  -1.421  0.00  0.00    -0.213 NA
ATOM     15  N   UNL A   1      -1.610  -0.737  -1.292  0.00  0.00    -0.107 NA
ENDBRANCH   7  12
ENDBRANCH   4   7
ENDBRANCH   1   4
BRANCH   2  16
ATOM     16  C   UNL A   1       1.146  -1.809   2.036  0.00  0.00    +0.070 C 
BRANCH  16  17
ATOM     17  C   UNL A   1       0.631  -2.807   1.015  0.00  0.00    +0.187 C 
ATOM     18  O   UNL A   1       1.053  -4.088   1.365  0.00  0.00    -0.220 OA
ENDBRANCH  16  17
ENDBRANCH   2  16
BRANCH   2  19
ATOM     19  S   UNL A   1       1.993   0.715   1.119  0.00  0.00    -0.058 S 
BRANCH  19  20
ATOM     20  S   UNL A   1       1.798   0.132  -0.925  0.00  0.00    -0.075 S 
BRANCH  20  21
ATOM     21  C   UNL A   1       3.132  -1.098  -0.803  0.00  0.00    +0.098 C 
BRANCH  21  22
ATOM     22  C   UNL A   1       4.489  -0.416  -0.838  0.00  0.00    +0.127 C 
ATOM     23  C   UNL A   1       5.571  -1.415  -0.508  0.00  0.00    +0.033 C 
ATOM     24  C   UNL A   1       6.700  -1.031  -1.415  0.00  0.00    +0.035 C 
ATOM     25  C   UNL A   1       6.140   0.107  -2.238  0.00  0.00    +0.142 C 
ATOM     26  O   UNL A   1       4.743   0.100  -2.118  0.00  0.00    -0.355 OA
ENDBRANCH  21  22
ENDBRANCH  20  21
ENDBRANCH  19  20
ENDBRANCH   2  19
TORSDOF 10
