REMARK  2 active torsions:
REMARK  status: ('A' for Active; 'I' for Inactive)
REMARK    1  A    between atoms: C_4  and  O_5 
REMARK    2  A    between atoms: C_11  and  O_12 
ROOT
ATOM      1  C   UNL d   1       4.874   1.182  -0.105  0.00  0.00     0.048 C 
ATOM      2  C   UNL d   1       3.524   0.562  -0.112  0.00  0.00    -0.058 A 
ATOM      3  C   UNL d   1       3.390  -0.816  -0.273  0.00  0.00     0.044 A 
ATOM      4  C   UNL d   1       2.125  -1.408  -0.280  0.00  0.00     0.081 A 
ATOM      5  C   UNL d   1       0.964  -0.613  -0.124  0.00  0.00     0.062 A 
ATOM      6  C   UNL d   1      -0.402  -1.206  -0.126  0.00  0.00     0.199 A 
ATOM      7  O   UNL d   1      -0.546  -2.450  -0.270  0.00  0.00    -0.286 OA
ATOM      8  C   UNL d   1      -1.600  -0.336   0.041  0.00  0.00     0.062 A 
ATOM      9  C   UNL d   1      -2.913  -0.865   0.044  0.00  0.00     0.080 A 
ATOM     10  C   UNL d   1      -4.012  -0.017   0.203  0.00  0.00     0.037 A 
ATOM     11  C   UNL d   1      -3.830   1.355   0.360  0.00  0.00     0.004 A 
ATOM     12  C   UNL d   1      -2.543   1.889   0.360  0.00  0.00     0.017 A 
ATOM     13  C   UNL d   1      -1.426   1.057   0.201  0.00  0.00     0.032 A 
ATOM     14  C   UNL d   1      -0.073   1.647   0.204  0.00  0.00     0.194 A 
ATOM     15  O   UNL d   1       0.070   2.893   0.348  0.00  0.00    -0.287 OA
ATOM     16  C   UNL d   1       1.111   0.783   0.038  0.00  0.00     0.032 A 
ATOM     17  C   UNL d   1       2.390   1.357   0.043  0.00  0.00     0.023 A 
ENDROOT
BRANCH   4  18
ATOM     18  O   UNL d   1       2.044  -2.786  -0.443  0.00  0.00    -0.360 OA
ATOM     19  HO  UNL d   1       1.184  -3.189  -0.448  1.00  0.00     0.217 HD
ENDBRANCH   4  18
BRANCH   9  20
ATOM     20  O   UNL d   1      -3.148  -2.227  -0.110  0.00  0.00    -0.360 OA
ATOM     21  HO  UNL d   1      -4.029  -2.581  -0.108  1.00  0.00     0.217 HD
ENDBRANCH   9  20
TORSDOF 2
