REMARK  2 active torsions:
REMARK  status: ('A' for Active; 'I' for Inactive)
REMARK    1  A    between atoms: C_4  and  C_2 
REMARK    2  A    between atoms: C_20  and  O_22 
ROOT
ATOM      1  C   UNL d   1      -3.457   0.522   0.992  0.00  0.00     0.064 C 
ATOM      2  C   UNL d   1      -2.762   1.044   2.230  0.00  0.00     0.013 C 
ATOM      3  C   UNL d   1      -1.861  -0.090   2.663  0.00  0.00     0.006 C 
ATOM      4  C   UNL d   1      -1.461  -0.834   1.394  0.00  0.00    -0.000 C 
ATOM      5  C   UNL d   1      -2.452  -0.396   0.285  0.00  0.00    -0.023 C 
ATOM      6  C   UNL d   1      -1.754   0.300  -0.902  0.00  0.00     0.089 C 
ATOM      7  C   UNL d   1      -0.580  -0.504  -1.361  0.00  0.00     0.133 C 
ATOM      8  O   UNL d   1      -0.475  -0.817  -2.536  0.00  0.00    -0.298 OA
ATOM      9  C   UNL d   1       0.429  -0.974  -0.346  0.00  0.00     0.068 C 
ATOM     10  C   UNL d   1       0.028  -0.578   1.090  0.00  0.00     0.002 C 
ATOM     11  C   UNL d   1       0.919  -1.309   2.110  0.00  0.00     0.006 C 
ATOM     12  C   UNL d   1       2.415  -1.293   1.750  0.00  0.00     0.006 C 
ATOM     13  C   UNL d   1       2.698  -0.315   0.616  0.00  0.00    -0.003 C 
ATOM     14  C   UNL d   1       1.922  -0.668  -0.675  0.00  0.00    -0.029 C 
ATOM     15  C   UNL d   1       2.102   0.517  -1.642  0.00  0.00     0.013 C 
ATOM     16  C   UNL d   1       3.584   0.809  -1.914  0.00  0.00     0.032 C 
ATOM     17  C   UNL d   1       4.342   1.076  -0.612  0.00  0.00     0.118 C 
ATOM     18  C   UNL d   1       4.184  -0.089   0.363  0.00  0.00     0.037 C 
ATOM     19  C   UNL d   1       2.492  -1.932  -1.317  0.00  0.00     0.016 C 
ATOM     20  C   UNL d   1      -3.197  -1.622  -0.217  0.00  0.00     0.016 C 
ENDROOT
BRANCH   1  21
ATOM     21  C   UNL d   1      -4.105   1.587   0.137  0.00  0.00     0.128 C 
ATOM     22  C   UNL d   1      -3.812   3.040   0.334  0.00  0.00     0.091 C 
ATOM     23  O   UNL d   1      -4.893   1.256  -0.733  0.00  0.00    -0.298 OA
ENDBRANCH   1  21
BRANCH  17  24
ATOM     24  O   UNL d   1       5.694   1.270  -0.891  0.00  0.00    -0.396 OA
ATOM     25  HO  UNL d   1       6.164   1.435  -0.083  1.00  0.00     0.210 HD
ENDBRANCH  17  24
TORSDOF 2
