REMARK  2 active torsions:
REMARK  status: ('A' for Active; 'I' for Inactive)
REMARK    1  A    between atoms: C_2  and  N_3 
REMARK    2  A    between atoms: C_12  and  C_15 
ROOT
ATOM      1  N   UNL d   1      -0.723   1.315   0.838  0.00  0.00    -0.291 N 
ATOM      2  C   UNL d   1       0.350   0.591   0.396  0.00  0.00     0.068 A 
ATOM      3  C   UNL d   1       1.674   1.049   0.590  0.00  0.00     0.072 A 
ATOM      4  C   UNL d   1       2.716   0.260   0.115  0.00  0.00     0.107 A 
ATOM      5  C   UNL d   1       2.497  -0.918  -0.519  0.00  0.00     0.106 A 
ATOM      6  C   UNL d   1       1.216  -1.414  -0.735  0.00  0.00     0.057 A 
ATOM      7  C   UNL d   1       0.124  -0.649  -0.271  0.00  0.00     0.048 A 
ATOM      8  C   UNL d   1      -1.192  -1.090  -0.457  0.00  0.00     0.219 A 
ATOM      9  O   UNL d   1      -1.415  -2.184  -1.044  0.00  0.00    -0.285 OA
ATOM     10  C   UNL d   1      -2.252  -0.297   0.019  0.00  0.00     0.176 A 
ATOM     11  N   UNL d   1      -1.969   0.876   0.647  0.00  0.00    -0.289 N 
ATOM     12  HN  UNL d   1      -2.743   1.446   0.987  1.00  0.00     0.187 HD
ATOM     13  O   UNL d   1       3.706  -1.480  -0.877  0.00  0.00    -0.323 OA
ATOM     14  C   UNL d   1       4.751  -0.600  -0.440  0.00  0.00     0.352 A 
ATOM     15  O   UNL d   1       4.074   0.497   0.188  0.00  0.00    -0.323 OA
ENDROOT
BRANCH  10  16
ATOM     16  C   UNL d   1      -3.672  -0.681  -0.133  0.00  0.00     0.232 C 
ATOM     17  O   UNL d   1      -4.002  -1.754  -0.705  0.00  0.00    -0.643 OA
ATOM     18  O   UNL d   1      -4.667   0.153   0.361  0.00  0.00    -0.643 OA
ENDBRANCH  10  16
BRANCH   1  19
ATOM     19  C   UNL d   1      -0.547   2.596   1.513  0.00  0.00     0.145 C 
ATOM     20  C   UNL d   1      -0.669   3.731   0.514  0.00  0.00     0.028 C 
ENDBRANCH   1  19
TORSDOF 2
