REMARK  15 active torsions:
REMARK  status: ('A' for Active; 'I' for Inactive)
REMARK    1  A    between atoms: C_2  and  C_3 
REMARK    2  A    between atoms: C_3  and  C_4 
REMARK    3  A    between atoms: C_4  and  C_5 
REMARK    4  A    between atoms: C_5  and  C_6 
REMARK    5  A    between atoms: C_6  and  C_7 
REMARK    6  A    between atoms: C_7  and  C_8 
REMARK    7  A    between atoms: C_8  and  C_9 
REMARK    8  A    between atoms: C_12  and  C_13 
REMARK    9  A    between atoms: C_13  and  C_14 
REMARK   10  A    between atoms: C_14  and  C_15 
REMARK   11  A    between atoms: C_15  and  N_16 
REMARK   12  A    between atoms: C_15  and  C_20 
REMARK   13  A    between atoms: C_15  and  C_23 
REMARK   14  A    between atoms: C_20  and  O_21 
REMARK   15  A    between atoms: C_23  and  O_24 
ROOT
ATOM      1  C   UNL d   1       1.444   1.095  -0.092  0.00  0.00    -0.058 A 
ATOM      2  C   UNL d   1       0.517   2.121   0.120  0.00  0.00     0.007 A 
ATOM      3  C   UNL d   1      -0.829   1.814   0.343  0.00  0.00     0.007 A 
ATOM      4  C   UNL d   1      -1.250   0.480   0.360  0.00  0.00    -0.058 A 
ATOM      5  C   UNL d   1      -0.323  -0.547   0.148  0.00  0.00     0.007 A 
ATOM      6  C   UNL d   1       1.023  -0.240  -0.075  0.00  0.00     0.007 A 
ENDROOT
BRANCH   4   7
ATOM      7  C   UNL d   1      -2.685   0.154   0.578  0.00  0.00     0.041 C 
BRANCH   7   8
ATOM      8  C   UNL d   1      -3.419   0.102  -0.759  0.00  0.00     0.048 C 
BRANCH   8   9
ATOM      9  C   UNL d   1      -4.903  -0.245  -0.613  0.00  0.00     0.165 C 
BRANCH   9  10
ATOM     10  N   UNL d   1      -5.498  -0.279  -1.940  0.00  0.00    -0.066 N 
ATOM     11  HN3 UNL d   1      -5.346   0.586  -2.460  1.00  0.00     0.275 HD
ATOM     12  HN2 UNL d   1      -5.008  -0.910  -2.574  1.00  0.00     0.275 HD
ATOM     13  HN1 UNL d   1      -6.487  -0.509  -1.843  1.00  0.00     0.275 HD
ENDBRANCH   9  10
BRANCH   9  14
ATOM     14  C   UNL d   1      -5.600   0.834   0.215  0.00  0.00     0.205 C 
BRANCH  14  15
ATOM     15  O   UNL d   1      -6.972   0.586   0.308  0.00  0.00    -0.398 OA
ATOM     16  HO  UNL d   1      -7.406   1.256   0.823  1.00  0.00     0.209 HD
ENDBRANCH  14  15
ENDBRANCH   9  14
BRANCH   9  17
ATOM     17  C   UNL d   1      -5.081  -1.609   0.056  0.00  0.00     0.205 C 
BRANCH  17  18
ATOM     18  O   UNL d   1      -4.488  -2.620  -0.705  0.00  0.00    -0.398 OA
ATOM     19  HO  UNL d   1      -4.599  -3.467  -0.289  1.00  0.00     0.209 HD
ENDBRANCH  17  18
ENDBRANCH   9  17
ENDBRANCH   8   9
ENDBRANCH   7   8
ENDBRANCH   4   7
BRANCH   1  20
ATOM     20  C   UNL d   1       2.879   1.418  -0.312  0.00  0.00     0.038 C 
BRANCH  20  21
ATOM     21  C   UNL d   1       3.614   1.469   1.017  0.00  0.00     0.005 C 
BRANCH  21  22
ATOM     22  C   UNL d   1       5.109   1.643   0.798  0.00  0.00     0.000 C 
BRANCH  22  23
ATOM     23  C   UNL d   1       5.773   0.308   0.495  0.00  0.00     0.000 C 
BRANCH  23  24
ATOM     24  C   UNL d   1       5.631  -0.037  -0.978  0.00  0.00     0.000 C 
BRANCH  24  25
ATOM     25  C   UNL d   1       6.101  -1.460  -1.238  0.00  0.00    -0.000 C 
BRANCH  25  26
ATOM     26  C   UNL d   1       5.096  -2.477  -0.718  0.00  0.00    -0.005 C 
ATOM     27  C   UNL d   1       3.863  -2.508  -1.603  0.00  0.00     0.005 C 
ENDBRANCH  25  26
ENDBRANCH  24  25
ENDBRANCH  23  24
ENDBRANCH  22  23
ENDBRANCH  21  22
ENDBRANCH  20  21
ENDBRANCH   1  20
TORSDOF 15
