REMARK  4 active torsions:
REMARK  status: ('A' for Active; 'I' for Inactive)
REMARK    1  A    between atoms: C_2  and  C_3 
REMARK    2  A    between atoms: C_2  and  O_8 
REMARK    3  A    between atoms: C_3  and  N_4 
REMARK    4  A    between atoms: O_8  and  C_9 
ROOT
ATOM      1  C   UNL d   1       0.251  -1.001   1.664  0.00  0.00     0.042 C 
ATOM      2  C   UNL d   1       0.217  -0.995   0.144  0.00  0.00     0.153 C 
ENDROOT
BRANCH   2   3
ATOM      3  C   UNL d   1      -1.228  -1.042  -0.388  0.00  0.00     0.268 C 
BRANCH   3   4
ATOM      4  N   UNL d   1      -1.941   0.244  -0.460  0.00  0.00    -0.076 N 
ATOM      5  C   UNL d   1      -3.343  -0.043  -0.701  0.00  0.00     0.271 C 
ATOM      6  C   UNL d   1      -1.457   1.042  -1.575  0.00  0.00     0.271 C 
ATOM      7  C   UNL d   1      -1.851   1.016   0.771  0.00  0.00     0.271 C 
ENDBRANCH   3   4
ENDBRANCH   2   3
BRANCH   2   8
ATOM      8  O   UNL d   1       0.948   0.109  -0.381  0.00  0.00    -0.315 OA
BRANCH   8   9
ATOM      9  C   UNL d   1       2.344   0.147  -0.391  0.00  0.00     0.255 C 
ATOM     10  O   UNL d   1       3.022  -0.822   0.044  0.00  0.00    -0.266 OA
ATOM     11  C   UNL d   1       3.038   1.345  -0.930  0.00  0.00     0.126 C 
ENDBRANCH   8   9
ENDBRANCH   2   8
TORSDOF 4
