REMARK  4 active torsions:
REMARK  status: ('A' for Active; 'I' for Inactive)
REMARK    1  A    between atoms: C_4  and  C_3 
REMARK    2  A    between atoms: C_4  and  C_5 
REMARK    3  A    between atoms: C_4  and  N_10 
REMARK    4  A    between atoms: C_12  and  C_16 
ROOT
ATOM      1  N   UNL d   1       2.107  -3.708  -1.649  0.00  0.00    -0.197 NA
ATOM      2  C   UNL d   1       2.626  -2.681  -1.525  0.00  0.00     0.061 C 
ATOM      3  C   UNL d   1       3.282  -1.379  -1.368  0.00  0.00     0.151 C 
ENDROOT
BRANCH   3   4
ATOM      4  C   UNL d   1       2.754  -0.663  -0.129  0.00  0.00     0.124 C 
BRANCH   4   5
ATOM      5  C   UNL d   1       3.661   0.510   0.248  0.00  0.00     0.011 C 
ATOM      6  C   UNL d   1       5.049   0.036   0.628  0.00  0.00     0.007 C 
ATOM      7  C   UNL d   1       5.577   1.052   1.622  0.00  0.00     0.000 C 
ATOM      8  C   UNL d   1       4.377   1.823   2.144  0.00  0.00     0.000 C 
ATOM      9  C   UNL d   1       3.152   1.228   1.481  0.00  0.00     0.007 C 
ENDBRANCH   4   5
BRANCH   4  10
ATOM     10  N   UNL d   1       1.386  -0.205  -0.360  0.00  0.00    -0.297 N 
ATOM     11  C   UNL d   1       0.313  -0.619   0.334  0.00  0.00     0.125 A 
ATOM     12  C   UNL d   1      -0.775   0.045  -0.197  0.00  0.00     0.025 A 
ATOM     13  C   UNL d   1      -0.294   0.851  -1.216  0.00  0.00     0.122 A 
ATOM     14  N   UNL d   1       1.039   0.672  -1.289  0.00  0.00    -0.309 N 
ATOM     15  HN  UNL d   1       1.670   1.131  -1.945  1.00  0.00     0.186 HD
BRANCH  12  16
ATOM     16  C   UNL d   1      -2.174  -0.094   0.252  0.00  0.00     0.060 A 
ATOM     17  N   UNL d   1      -2.474  -0.943   1.281  0.00  0.00    -0.351 N 
ATOM     18  C   UNL d   1      -3.757  -1.104   1.731  0.00  0.00     0.182 A 
ATOM     19  HN  UNL d   1      -1.722  -1.470   1.726  1.00  0.00     0.166 HD
ATOM     20  N   UNL d   1      -4.783  -0.412   1.156  0.00  0.00    -0.338 N 
ATOM     21  C   UNL d   1      -4.500   0.432   0.136  0.00  0.00     0.118 A 
ATOM     22  HN  UNL d   1      -5.741  -0.528   1.487  1.00  0.00     0.168 HD
ATOM     23  N   UNL d   1      -5.391   1.179  -0.529  0.00  0.00    -0.352 N 
ATOM     24  C   UNL d   1      -3.235   0.609  -0.328  0.00  0.00     0.037 A 
ATOM     25  C   UNL d   1      -4.648   1.848  -1.446  0.00  0.00     0.090 A 
ATOM     26  HN  UNL d   1      -6.398   1.232  -0.381  1.00  0.00     0.166 HD
ATOM     27  C   UNL d   1      -3.292   1.522  -1.357  0.00  0.00     0.034 A 
ENDBRANCH  12  16
ENDBRANCH   4  10
ENDBRANCH   3   4
TORSDOF 4
