REMARK  5 active torsions:
REMARK  status: ('A' for Active; 'I' for Inactive)
REMARK    1  A    between atoms: C_2  and  N_3 
REMARK    2  A    between atoms: N_3  and  C_4 
REMARK       I    between atoms: N_3  and  C_6 
REMARK    3  A    between atoms: C_6  and  C_8 
REMARK    4  A    between atoms: C_11  and  O_16 
REMARK    5  A    between atoms: C_12  and  O_14 
ROOT
ATOM      1  C   UNL d   1       0.020   0.131  -0.052  0.00  0.00     0.035 A 
ATOM      2  C   UNL d   1      -0.161   0.062  -1.440  0.00  0.00     0.020 A 
ATOM      3  C   UNL d   1      -1.405  -0.274  -1.979  0.00  0.00     0.040 A 
ATOM      4  C   UNL d   1      -2.486  -0.538  -1.135  0.00  0.00     0.099 A 
ATOM      5  C   UNL d   1      -2.329  -0.464   0.255  0.00  0.00     0.102 A 
ATOM      6  C   UNL d   1      -1.074  -0.125   0.788  0.00  0.00     0.056 A 
ENDROOT
BRANCH   1   7
ATOM      7  C   UNL d   1       1.325   0.511   0.536  0.00  0.00     0.253 C 
ATOM      8  N   UNL d   1       2.554   0.458  -0.218  0.00  0.00    -0.349 N 
ATOM      9  O   UNL d   1       1.359   0.906   1.734  0.00  0.00    -0.267 OA
BRANCH   8  10
ATOM     10  C   UNL d   1       2.760  -0.493  -1.305  0.00  0.00     0.121 C 
ATOM     11  C   UNL d   1       2.799  -1.911  -0.765  0.00  0.00     0.026 C 
ENDBRANCH   8  10
BRANCH   8  12
ATOM     12  C   UNL d   1       3.693   1.274   0.178  0.00  0.00     0.121 C 
ATOM     13  C   UNL d   1       3.433   2.733  -0.149  0.00  0.00     0.026 C 
ENDBRANCH   8  12
ENDBRANCH   1   7
BRANCH   5  14
ATOM     14  O   UNL d   1      -3.424  -0.726   1.085  0.00  0.00    -0.353 OA
ATOM     15  C   UNL d   1      -3.345  -0.670   2.503  0.00  0.00     0.210 C 
ENDBRANCH   5  14
BRANCH   4  16
ATOM     16  O   UNL d   1      -3.718  -0.873  -1.684  0.00  0.00    -0.358 OA
ATOM     17  HO  UNL d   1      -4.453  -1.053  -1.111  1.00  0.00     0.217 HD
ENDBRANCH   4  16
TORSDOF 5
