REMARK  2 active torsions:
REMARK  status: ('A' for Active; 'I' for Inactive)
REMARK    1  A    between atoms: C_2  and  N_19 
REMARK    2  A    between atoms: C_9  and  C_15 
ROOT
ATOM      1  C   UNL d   1      -3.270   0.475   0.505  0.00  0.00     0.190 C 
ATOM      2  C   UNL d   1      -3.588  -1.014   0.717  0.00  0.00     0.039 C 
ATOM      3  C   UNL d   1      -2.813  -1.896  -0.274  0.00  0.00     0.059 C 
ATOM      4  C   UNL d   1      -1.372  -1.493  -0.316  0.00  0.00     0.017 A 
ATOM      5  C   UNL d   1      -0.930  -0.248   0.094  0.00  0.00    -0.021 A 
ATOM      6  C   UNL d   1       0.419  -0.242  -0.141  0.00  0.00    -0.000 A 
ATOM      7  C   UNL d   1       1.390   0.726   0.102  0.00  0.00     0.031 A 
ATOM      8  C   UNL d   1       2.720   0.428  -0.260  0.00  0.00     0.030 A 
ATOM      9  C   UNL d   1       3.026  -0.824  -0.848  0.00  0.00     0.019 A 
ATOM     10  C   UNL d   1       2.022  -1.783  -1.076  0.00  0.00     0.031 A 
ATOM     11  C   UNL d   1       0.720  -1.458  -0.707  0.00  0.00     0.043 A 
ATOM     12  N   UNL d   1      -0.370  -2.244  -0.833  0.00  0.00    -0.358 N 
ATOM     13  HN  UNL d   1      -0.427  -3.184  -1.225  1.00  0.00     0.166 HD
ATOM     14  C   UNL d   1      -1.786   0.771   0.777  0.00  0.00     0.074 C 
ENDROOT
BRANCH   1  15
ATOM     15  N   UNL d   1      -4.101   1.280   1.384  0.00  0.00    -0.074 N 
ATOM     16  C   UNL d   1      -4.511   2.452   0.630  0.00  0.00     0.267 C 
ATOM     17  HN2 UNL d   1      -3.643   1.511   2.266  1.00  0.00     0.277 HD
ATOM     18  HN1 UNL d   1      -4.887   0.762   1.777  1.00  0.00     0.277 HD
ENDBRANCH   1  15
BRANCH   8  19
ATOM     19  C   UNL d   1       3.788   1.416  -0.028  0.00  0.00     0.265 C 
ATOM     20  O   UNL d   1       3.522   2.531   0.494  0.00  0.00    -0.271 OA
ATOM     21  N   UNL d   1       5.134   1.122  -0.392  0.00  0.00    -0.057 NA
ENDBRANCH   8  19
TORSDOF 2
