REMARK  2 active torsions:
REMARK  status: ('A' for Active; 'I' for Inactive)
REMARK       I    between atoms: C_1  and  N_3 
REMARK    1  A    between atoms: C_1  and  C_14 
REMARK    2  A    between atoms: C_18  and  O_19 
ROOT
ATOM      1  C   UNL d   1       0.065  -1.421  -1.122  0.00  0.00     0.259 C 
ATOM      2  O   UNL d   1       0.028  -2.385  -1.934  0.00  0.00    -0.267 OA
ATOM      3  N   UNL d   1      -1.117  -1.086  -0.381  0.00  0.00    -0.298 N 
ATOM      4  C   UNL d   1      -1.654   0.238  -0.244  0.00  0.00     0.060 A 
ATOM      5  C   UNL d   1      -2.827   0.303   0.476  0.00  0.00     0.087 A 
ATOM      6  S   UNL d   1      -3.324  -1.269   0.992  0.00  0.00     0.194 S 
ATOM      7  O   UNL d   1      -3.291  -1.420   2.486  0.00  0.00    -0.221 OA
ATOM      8  O   UNL d   1      -4.652  -1.671   0.416  0.00  0.00    -0.221 OA
ATOM      9  C   UNL d   1      -1.970  -2.126   0.203  0.00  0.00     0.278 A 
ATOM     10  C   UNL d   1      -3.504   1.506   0.677  0.00  0.00     0.026 A 
ATOM     11  C   UNL d   1      -2.962   2.675   0.124  0.00  0.00     0.002 A 
ATOM     12  C   UNL d   1      -1.773   2.620  -0.624  0.00  0.00     0.002 A 
ATOM     13  C   UNL d   1      -1.115   1.396  -0.819  0.00  0.00     0.031 A 
ENDROOT
BRANCH   1  14
ATOM     14  C   UNL d   1       1.334  -0.691  -0.921  0.00  0.00     0.035 A 
ATOM     15  C   UNL d   1       1.534   0.091   0.225  0.00  0.00     0.044 A 
ATOM     16  C   UNL d   1       2.741   0.765   0.424  0.00  0.00     0.069 A 
ATOM     17 CL   UNL d   1       2.945   1.742   1.867  0.00  0.00    -0.081 Cl
ATOM     18  C   UNL d   1       3.770   0.655  -0.523  0.00  0.00     0.109 A 
ATOM     19  C   UNL d   1       3.580  -0.137  -1.666  0.00  0.00     0.069 A 
ATOM     20 CL   UNL d   1       4.848  -0.303  -2.867  0.00  0.00    -0.081 Cl
ATOM     21  C   UNL d   1       2.369  -0.807  -1.858  0.00  0.00     0.044 A 
BRANCH  18  22
ATOM     22  O   UNL d   1       4.973   1.325  -0.329  0.00  0.00    -0.357 OA
ATOM     23  HO  UNL d   1       5.669   1.250  -0.971  1.00  0.00     0.217 HD
ENDBRANCH  18  22
ENDBRANCH   1  14
TORSDOF 2
