REMARK  9 active torsions:
REMARK  status: ('A' for Active; 'I' for Inactive)
REMARK    1  A    between atoms: C_2  and  C_3 
REMARK    2  A    between atoms: C_2  and  N_24 
REMARK    3  A    between atoms: C_3  and  O_4 
REMARK    4  A    between atoms: O_4  and  C_5 
REMARK    5  A    between atoms: C_11  and  C_13 
REMARK    6  A    between atoms: C_11  and  N_24 
REMARK    7  A    between atoms: C_13  and  C_14 
REMARK    8  A    between atoms: C_13  and  O_22 
REMARK    9  A    between atoms: C_17  and  O_20 
ROOT
ATOM      1  C   UNL d   1       0.865   0.753  -2.048  0.00  0.00     0.215 C 
ATOM      2  C   UNL d   1      -0.273   0.365  -2.985  0.00  0.00     0.043 C 
ENDROOT
BRANCH   1   3
ATOM      3  C   UNL d   1       1.899  -0.372  -1.897  0.00  0.00     0.181 C 
BRANCH   3   4
ATOM      4  C   UNL d   1       3.062   0.051  -1.053  0.00  0.00    -0.028 A 
ATOM      5  C   UNL d   1       3.883   1.122  -1.439  0.00  0.00     0.012 A 
ATOM      6  C   UNL d   1       4.966   1.499  -0.639  0.00  0.00     0.037 A 
ATOM      7  C   UNL d   1       5.233   0.808   0.547  0.00  0.00     0.065 A 
ATOM      8  C   UNL d   1       4.420  -0.261   0.931  0.00  0.00     0.037 A 
ATOM      9  C   UNL d   1       3.337  -0.640   0.132  0.00  0.00     0.012 A 
BRANCH   7  10
ATOM     10  O   UNL d   1       6.307   1.184   1.341  0.00  0.00    -0.361 OA
ATOM     11  HO  UNL d   1       6.860   1.911   1.080  1.00  0.00     0.217 HD
ENDBRANCH   7  10
ENDBRANCH   3   4
BRANCH   3  12
ATOM     12  O   UNL d   1       2.357  -0.786  -3.150  0.00  0.00    -0.389 OA
ATOM     13  HO  UNL d   1       2.997  -1.482  -3.056  1.00  0.00     0.210 HD
ENDBRANCH   3  12
ENDBRANCH   1   3
BRANCH   1  14
ATOM     14  N   UNL d   1       0.357   1.234  -0.757  0.00  0.00    -0.063 N 
ATOM     15  HN2 UNL d   1      -0.236   2.056  -0.868  1.00  0.00     0.278 HD
ATOM     16  HN1 UNL d   1       1.098   1.651  -0.194  1.00  0.00     0.278 HD
BRANCH  14  17
ATOM     17  C   UNL d   1      -0.332   0.168  -0.033  0.00  0.00     0.206 C 
ATOM     18  C   UNL d   1       0.174   0.124   1.396  0.00  0.00     0.042 C 
BRANCH  17  19
ATOM     19  C   UNL d   1      -1.827   0.435  -0.038  0.00  0.00     0.208 C 
BRANCH  19  20
ATOM     20  O   UNL d   1      -2.526  -0.710   0.433  0.00  0.00    -0.349 OA
BRANCH  20  21
ATOM     21  C   UNL d   1      -3.919  -0.755   0.533  0.00  0.00     0.068 A 
ATOM     22  C   UNL d   1      -4.527  -1.922   1.008  0.00  0.00     0.037 A 
ATOM     23  C   UNL d   1      -5.918  -1.998   1.119  0.00  0.00     0.003 A 
ATOM     24  C   UNL d   1      -6.710  -0.905   0.755  0.00  0.00     0.000 A 
ATOM     25  C   UNL d   1      -6.111   0.264   0.279  0.00  0.00     0.003 A 
ATOM     26  C   UNL d   1      -4.719   0.341   0.168  0.00  0.00     0.037 A 
ENDBRANCH  20  21
ENDBRANCH  19  20
ENDBRANCH  17  19
ENDBRANCH  14  17
ENDBRANCH   1  14
TORSDOF 9
