REMARK  6 active torsions:
REMARK  status: ('A' for Active; 'I' for Inactive)
REMARK    1  A    between atoms: C_3  and  O_35 
REMARK    2  A    between atoms: C_4  and  S_32 
REMARK    3  A    between atoms: C_6  and  C_7 
REMARK    4  A    between atoms: C_7  and  C_21 
REMARK    5  A    between atoms: C_24  and  O_30 
REMARK    6  A    between atoms: C_25  and  S_27 
ROOT
ATOM      1  C   UNL d   1       0.102  -0.404   0.699  0.00  0.00     0.155 A 
ATOM      2  C   UNL d   1      -0.111   1.055   0.290  0.00  0.00     0.023 A 
ATOM      3  C   UNL d   1       0.034   1.879   1.386  0.00  0.00     0.069 A 
ATOM      4  C   UNL d   1      -0.100   3.267   1.305  0.00  0.00     0.046 A 
ATOM      5  C   UNL d   1      -0.392   3.834   0.046  0.00  0.00     0.048 A 
ATOM      6  C   UNL d   1      -0.526   3.003  -1.095  0.00  0.00     0.047 A 
ATOM      7  C   UNL d   1      -0.376   1.601  -0.980  0.00  0.00     0.040 A 
ATOM      8 BR   UNL d   1      -0.513   0.472  -2.532  0.00  0.00    -0.049 Br
ATOM      9 BR   UNL d   1      -0.909   3.785  -2.813  0.00  0.00    -0.048 Br
ATOM     10 BR   UNL d   1      -0.597   5.742  -0.116  0.00  0.00    -0.048 Br
ATOM     11 BR   UNL d   1       0.116   4.361   2.871  0.00  0.00    -0.049 Br
ATOM     12  C   UNL d   1       0.369   1.029   2.505  0.00  0.00     0.297 A 
ATOM     13  O   UNL d   1       0.594   1.402   3.685  0.00  0.00    -0.259 OA
ATOM     14  O   UNL d   1       0.426  -0.291   2.091  0.00  0.00    -0.291 OA
ENDROOT
BRANCH   1  15
ATOM     15  C   UNL d   1       1.294  -0.995  -0.039  0.00  0.00    -0.012 A 
ATOM     16  C   UNL d   1       1.151  -2.045  -0.962  0.00  0.00     0.014 A 
ATOM     17  C   UNL d   1       2.261  -2.550  -1.643  0.00  0.00     0.039 A 
ATOM     18  C   UNL d   1       3.529  -2.010  -1.417  0.00  0.00     0.089 A 
ATOM     19  C   UNL d   1       3.688  -0.956  -0.503  0.00  0.00     0.114 A 
ATOM     20  C   UNL d   1       2.572  -0.457   0.177  0.00  0.00     0.040 A 
BRANCH  18  21
ATOM     21  O   UNL d   1       4.621  -2.525  -2.106  0.00  0.00    -0.359 OA
ATOM     22  HO  UNL d   1       5.483  -2.158  -1.952  1.00  0.00     0.217 HD
ENDBRANCH  18  21
BRANCH  19  23
ATOM     23  S   UNL d   1       5.266  -0.246  -0.199  0.00  0.00     0.140 S 
ATOM     24  O   UNL d   1       6.198  -1.296   0.338  0.00  0.00    -0.591 OA
ATOM     25  O   UNL d   1       5.821   0.319  -1.476  0.00  0.00    -0.591 OA
ATOM     26  O   UNL d   1       5.125   0.989   0.931  0.00  0.00    -0.591 OA
ENDBRANCH  19  23
ENDBRANCH   1  15
BRANCH   1  27
ATOM     27  C   UNL d   1      -1.162  -1.250   0.590  0.00  0.00    -0.012 A 
ATOM     28  C   UNL d   1      -2.333  -0.764  -0.013  0.00  0.00     0.040 A 
ATOM     29  C   UNL d   1      -3.487  -1.549  -0.086  0.00  0.00     0.114 A 
ATOM     30  C   UNL d   1      -3.480  -2.842   0.460  0.00  0.00     0.089 A 
ATOM     31  C   UNL d   1      -2.324  -3.332   1.074  0.00  0.00     0.039 A 
ATOM     32  C   UNL d   1      -1.175  -2.541   1.141  0.00  0.00     0.014 A 
BRANCH  29  33
ATOM     33  S   UNL d   1      -4.924  -0.900  -0.864  0.00  0.00     0.140 S 
ATOM     34  O   UNL d   1      -4.677   0.519  -1.293  0.00  0.00    -0.591 OA
ATOM     35  O   UNL d   1      -5.259  -1.728  -2.073  0.00  0.00    -0.591 OA
ATOM     36  O   UNL d   1      -6.209  -0.928   0.217  0.00  0.00    -0.591 OA
ENDBRANCH  29  33
BRANCH  30  37
ATOM     37  O   UNL d   1      -4.612  -3.646   0.400  0.00  0.00    -0.359 OA
ATOM     38  HO  UNL d   1      -5.397  -3.313  -0.018  1.00  0.00     0.217 HD
ENDBRANCH  30  37
ENDBRANCH   1  27
TORSDOF 6
