REMARK  14 active torsions:
REMARK  status: ('A' for Active; 'I' for Inactive)
REMARK    1  A    between atoms: C_2  and  O_1 
REMARK    2  A    between atoms: C_11  and  O_1 
REMARK    3  A    between atoms: C_2  and  C_5 
REMARK    4  A    between atoms: C_13  and  C_14 
REMARK    5  A    between atoms: C_14  and  O_15 
REMARK    6  A    between atoms: C_16  and  O_15 
REMARK    7  A    between atoms: C_18  and  C_19 
REMARK    8  A    between atoms: C_19  and  O_20 
REMARK    9  A    between atoms: C_22  and  O_23 
REMARK   10  A    between atoms: C_25  and  O_26 
REMARK   11  A    between atoms: C_28  and  O_29 
REMARK   12  A    between atoms: C_31  and  O_32 
REMARK   13  A    between atoms: C_34  and  O_35 
REMARK   14  A    between atoms: C_37  and  O_38 
ROOT
ATOM      1  C   UNL d   1       3.904   0.927   0.659  0.00  0.00     0.264 C 
ATOM      2  C   UNL d   1       4.252   2.144   1.402  0.00  0.00     0.096 C 
ATOM      3  N   UNL d   1       4.525   3.104   1.987  0.00  0.00    -0.194 NA
ENDROOT
BRANCH   1   4
ATOM      4  O   UNL d   1       3.021   0.146   1.412  0.00  0.00    -0.334 OA
BRANCH   4   5
ATOM      5  C   UNL d   1       1.952  -0.122   0.554  0.00  0.00     0.293 C 
ATOM      6  O   UNL d   1       0.773   0.440   1.073  0.00  0.00    -0.348 OA
ATOM      7  C   UNL d   1      -0.153   0.415   0.016  0.00  0.00     0.180 C 
ATOM      8  C   UNL d   1      -0.585  -1.025  -0.319  0.00  0.00     0.180 C 
ATOM      9  C   UNL d   1       0.333  -2.081   0.314  0.00  0.00     0.183 C 
ATOM     10  C   UNL d   1       1.802  -1.640   0.371  0.00  0.00     0.204 C 
BRANCH   7  11
ATOM     11  C   UNL d   1      -1.363   1.257   0.385  0.00  0.00     0.205 C 
BRANCH  11  12
ATOM     12  O   UNL d   1      -2.160   1.475  -0.742  0.00  0.00    -0.356 OA
BRANCH  12  13
ATOM     13  C   UNL d   1      -3.432   1.030  -0.371  0.00  0.00     0.291 C 
ATOM     14  O   UNL d   1      -3.711  -0.180  -1.031  0.00  0.00    -0.348 OA
ATOM     15  C   UNL d   1      -4.854  -0.722  -0.417  0.00  0.00     0.179 C 
ATOM     16  C   UNL d   1      -6.085   0.117  -0.785  0.00  0.00     0.180 C 
ATOM     17  C   UNL d   1      -5.869   1.566  -0.345  0.00  0.00     0.183 C 
ATOM     18  C   UNL d   1      -4.484   2.075  -0.750  0.00  0.00     0.204 C 
BRANCH  15  19
ATOM     19  C   UNL d   1      -5.035  -2.158  -0.878  0.00  0.00     0.198 C 
BRANCH  19  20
ATOM     20  O   UNL d   1      -3.982  -2.943  -0.407  0.00  0.00    -0.398 OA
ATOM     21  HO  UNL d   1      -4.096  -3.841  -0.696  1.00  0.00     0.209 HD
ENDBRANCH  19  20
ENDBRANCH  15  19
BRANCH  16  22
ATOM     22  O   UNL d   1      -7.219  -0.393  -0.149  0.00  0.00    -0.390 OA
ATOM     23  HO  UNL d   1      -7.981   0.126  -0.378  1.00  0.00     0.210 HD
ENDBRANCH  16  22
BRANCH  17  24
ATOM     24  O   UNL d   1      -6.853   2.381  -0.904  0.00  0.00    -0.390 OA
ATOM     25  HO  UNL d   1      -6.719   3.281  -0.631  1.00  0.00     0.210 HD
ENDBRANCH  17  24
BRANCH  18  26
ATOM     26  O   UNL d   1      -4.219   3.276  -0.090  0.00  0.00    -0.388 OA
ATOM     27  HO  UNL d   1      -3.359   3.592  -0.342  1.00  0.00     0.210 HD
ENDBRANCH  18  26
ENDBRANCH  12  13
ENDBRANCH  11  12
ENDBRANCH   7  11
BRANCH   8  28
ATOM     28  O   UNL d   1      -0.610  -1.192  -1.703  0.00  0.00    -0.390 OA
ATOM     29  HO  UNL d   1      -0.876  -2.080  -1.910  1.00  0.00     0.210 HD
ENDBRANCH   8  28
BRANCH   9  30
ATOM     30  O   UNL d   1      -0.114  -2.370   1.603  0.00  0.00    -0.390 OA
ATOM     31  HO  UNL d   1       0.454  -3.023   1.995  1.00  0.00     0.210 HD
ENDBRANCH   9  30
BRANCH  10  32
ATOM     32  O   UNL d   1       2.459  -2.033  -0.795  0.00  0.00    -0.388 OA
ATOM     33  HO  UNL d   1       3.369  -1.760  -0.760  1.00  0.00     0.210 HD
ENDBRANCH  10  32
ENDBRANCH   4   5
ENDBRANCH   1   4
BRANCH   1  34
ATOM     34  C   UNL d   1       5.135   0.145   0.318  0.00  0.00    -0.016 A 
ATOM     35  C   UNL d   1       5.552   0.073  -1.016  0.00  0.00     0.011 A 
ATOM     36  C   UNL d   1       6.697  -0.652  -1.356  0.00  0.00     0.001 A 
ATOM     37  C   UNL d   1       7.431  -1.308  -0.363  0.00  0.00     0.000 A 
ATOM     38  C   UNL d   1       7.019  -1.239   0.971  0.00  0.00     0.001 A 
ATOM     39  C   UNL d   1       5.874  -0.514   1.313  0.00  0.00     0.011 A 
ENDBRANCH   1  34
TORSDOF 14
