REMARK  0 active torsions:
REMARK  status: ('A' for Active; 'I' for Inactive)
ROOT
ATOM      1  C   UNL d   1      -1.029   0.694  -1.805  0.00  0.00     0.057 C 
ATOM      2  C   UNL d   1      -0.654   0.586  -0.339  0.00  0.00     0.146 A 
ATOM      3  C   UNL d   1      -1.605   1.397   0.522  0.00  0.00     0.057 C 
ATOM      4  C   UNL d   1      -0.600  -0.842   0.106  0.00  0.00     0.260 A 
ATOM      5  O   UNL d   1      -1.584  -1.628   0.100  0.00  0.00    -0.270 OA
ATOM      6  N   UNL d   1       0.694  -1.236   0.545  0.00  0.00    -0.270 N 
ATOM      7  HN  UNL d   1       1.007  -2.141   0.896  1.00  0.00     0.174 HD
ATOM      8  C   UNL d   1       1.434  -0.040   0.367  0.00  0.00     0.368 A 
ATOM      9  O   UNL d   1       2.658   0.054   0.641  0.00  0.00    -0.238 OA
ATOM     10  O   UNL d   1       0.685   1.014  -0.137  0.00  0.00    -0.283 OA
ENDROOT
TORSDOF 0
