REMARK  20 active torsions:
REMARK  status: ('A' for Active; 'I' for Inactive)
REMARK    1  A    between atoms: C_2  and  C_4 
REMARK    2  A    between atoms: C_4  and  C_5 
REMARK    3  A    between atoms: C_5  and  C_6 
REMARK    4  A    between atoms: C_11  and  C_12 
REMARK    5  A    between atoms: C_12  and  C_13 
REMARK    6  A    between atoms: C_23  and  C_24 
REMARK    7  A    between atoms: C_24  and  C_25 
REMARK    8  A    between atoms: C_28  and  O_29 
REMARK    9  A    between atoms: C_42  and  C_56 
REMARK   10  A    between atoms: C_47  and  C_48 
REMARK   11  A    between atoms: C_48  and  C_49 
REMARK       I    between atoms: C_56  and  N_58 
REMARK   12  A    between atoms: C_62  and  C_63 
REMARK       I    between atoms: C_63  and  N_65 
REMARK   13  A    between atoms: N_65  and  C_67 
REMARK   14  A    between atoms: C_67  and  C_68 
REMARK   15  A    between atoms: C_67  and  C_78 
REMARK   16  A    between atoms: C_68  and  C_69 
REMARK   17  A    between atoms: C_69  and  C_70 
REMARK   18  A    between atoms: C_70  and  N_71 
REMARK       I    between atoms: N_71  and  C_73 
REMARK       I    between atoms: C_78  and  N_80 
REMARK   19  A    between atoms: N_80  and  C_82 
REMARK   20  A    between atoms: C_82  and  C_83 
ROOT
ATOM      1  C   UNL d   1      -2.951   2.855   1.261  0.00  0.00     0.177 C 
ATOM      2  N   UNL d   1      -4.259   2.577   0.692  0.00  0.00    -0.346 N 
ATOM      3  HN  UNL d   1      -4.893   1.934   1.165  1.00  0.00     0.163 HD
ATOM      4  C   UNL d   1      -4.660   3.202  -0.530  0.00  0.00     0.241 C 
ATOM      5  O   UNL d   1      -4.302   4.388  -0.772  0.00  0.00    -0.271 OA
ATOM      6  C   UNL d   1      -5.386   2.421  -1.587  0.00  0.00     0.180 C 
ATOM      7  N   UNL d   1      -5.613   1.034  -1.202  0.00  0.00    -0.346 N 
ATOM      8  HN  UNL d   1      -5.903   0.815  -0.248  1.00  0.00     0.163 HD
ATOM      9  C   UNL d   1      -5.434  -0.024  -2.147  0.00  0.00     0.241 C 
ATOM     10  O   UNL d   1      -5.006   0.231  -3.304  0.00  0.00    -0.271 OA
ATOM     11  C   UNL d   1      -5.776  -1.439  -1.798  0.00  0.00     0.180 C 
ATOM     12  N   UNL d   1      -4.636  -2.328  -2.073  0.00  0.00    -0.347 N 
ATOM     13  HN  UNL d   1      -4.721  -2.976  -2.856  1.00  0.00     0.163 HD
ATOM     14  C   UNL d   1      -3.414  -2.348  -1.320  0.00  0.00     0.219 C 
ATOM     15  O   UNL d   1      -3.386  -1.899  -0.146  0.00  0.00    -0.274 OA
ATOM     16  C   UNL d   1      -2.211  -3.008  -1.915  0.00  0.00     0.114 C 
ATOM     17  C   UNL d   1      -0.904  -2.351  -1.493  0.00  0.00     0.095 C 
ATOM     18  S   UNL d   1      -0.611  -0.815  -2.435  0.00  0.00    -0.097 SA
ATOM     19  S   UNL d   1       1.356  -1.438  -2.987  0.00  0.00    -0.095 SA
ATOM     20  C   UNL d   1       2.174  -0.285  -1.832  0.00  0.00     0.120 C 
ATOM     21  C   UNL d   1       2.490  -0.976  -0.505  0.00  0.00     0.186 C 
ATOM     22  N   UNL d   1       1.270  -1.185   0.268  0.00  0.00    -0.345 N 
ATOM     23  HN  UNL d   1       0.921  -2.140   0.354  1.00  0.00     0.163 HD
ATOM     24  C   UNL d   1       0.529  -0.144   0.914  0.00  0.00     0.241 C 
ATOM     25  O   UNL d   1       1.045   0.992   1.085  0.00  0.00    -0.271 OA
ATOM     26  C   UNL d   1      -0.867  -0.435   1.389  0.00  0.00     0.185 C 
ATOM     27  N   UNL d   1      -1.600   0.760   1.803  0.00  0.00    -0.346 N 
ATOM     28  HN  UNL d   1      -1.831   0.882   2.789  1.00  0.00     0.163 HD
ATOM     29  C   UNL d   1      -2.004   1.761   0.867  0.00  0.00     0.241 C 
ATOM     30  O   UNL d   1      -1.624   1.688  -0.338  0.00  0.00    -0.271 OA
ENDROOT
BRANCH  21  31
ATOM     31  C   UNL d   1       3.580  -0.359   0.350  0.00  0.00     0.244 C 
ATOM     32  O   UNL d   1       3.934  -0.991   1.385  0.00  0.00    -0.271 OA
ATOM     33  N   UNL d   1       4.254   0.877   0.022  0.00  0.00    -0.337 N 
ATOM     34  C   UNL d   1       3.730   1.893  -0.867  0.00  0.00     0.127 C 
ATOM     35  C   UNL d   1       5.399   1.351   0.786  0.00  0.00     0.179 C 
ATOM     36  C   UNL d   1       4.719   3.041  -0.816  0.00  0.00     0.022 C 
ATOM     37  C   UNL d   1       5.548   2.818   0.440  0.00  0.00     0.037 C 
BRANCH  35  38
ATOM     38  C   UNL d   1       6.642   0.600   0.417  0.00  0.00     0.241 C 
ATOM     39  O   UNL d   1       6.788   0.141  -0.749  0.00  0.00    -0.271 OA
ATOM     40  N   UNL d   1       7.691   0.474   1.385  0.00  0.00    -0.346 N 
ATOM     41  HN  UNL d   1       7.545   0.899   2.301  1.00  0.00     0.163 HD
BRANCH  40  42
ATOM     42  C   UNL d   1       8.962  -0.222   1.153  0.00  0.00     0.176 C 
BRANCH  42  43
ATOM     43  C   UNL d   1       9.686   0.316  -0.077  0.00  0.00     0.036 C 
BRANCH  43  44
ATOM     44  C   UNL d   1      10.141   1.744   0.157  0.00  0.00     0.022 C 
BRANCH  44  45
ATOM     45  C   UNL d   1      10.860   2.288  -1.065  0.00  0.00     0.122 C 
BRANCH  45  46
ATOM     46  N   UNL d   1      12.196   1.722  -1.159  0.00  0.00    -0.365 N 
ATOM     47  C   UNL d   1      12.488   0.552  -1.919  0.00  0.00     0.181 C 
ATOM     48  N   UNL d   1      13.807   0.024  -1.925  0.00  0.00    -0.064 NA
ATOM     49  N   UNL d   1      11.571  -0.016  -2.623  0.00  0.00    -0.374 N 
ATOM     50  HN2 UNL d   1      10.625   0.364  -2.619  1.00  0.00     0.158 HD
ATOM     51  HN1 UNL d   1      11.781  -0.853  -3.167  1.00  0.00     0.158 HD
ATOM     52  HN  UNL d   1      12.957   2.182  -0.660  1.00  0.00     0.162 HD
ENDBRANCH  45  46
ENDBRANCH  44  45
ENDBRANCH  43  44
ENDBRANCH  42  43
BRANCH  42  53
ATOM     53  C   UNL d   1       8.793  -1.714   1.077  0.00  0.00     0.240 C 
ATOM     54  O   UNL d   1       9.798  -2.455   1.264  0.00  0.00    -0.271 OA
ATOM     55  N   UNL d   1       7.522  -2.299   0.772  0.00  0.00    -0.351 N 
ATOM     56  HN  UNL d   1       6.709  -1.688   0.690  1.00  0.00     0.163 HD
BRANCH  55  57
ATOM     57  C   UNL d   1       7.342  -3.731   0.574  0.00  0.00     0.222 C 
BRANCH  57  58
ATOM     58  C   UNL d   1       7.716  -4.147  -0.814  0.00  0.00     0.248 C 
ATOM     59  N   UNL d   1       7.175  -5.357  -1.342  0.00  0.00    -0.061 NA
ATOM     60  O   UNL d   1       8.539  -3.475  -1.497  0.00  0.00    -0.275 OA
ENDBRANCH  57  58
ENDBRANCH  55  57
ENDBRANCH  42  53
ENDBRANCH  40  42
ENDBRANCH  35  38
ENDBRANCH  21  31
BRANCH  26  61
ATOM     61  C   UNL d   1      -0.936  -1.535   2.452  0.00  0.00     0.134 C 
BRANCH  61  62
ATOM     62  C   UNL d   1      -0.018  -1.303   3.612  0.00  0.00     0.233 C 
ATOM     63  N   UNL d   1      -0.502  -0.688   4.805  0.00  0.00    -0.062 NA
ATOM     64  O   UNL d   1       1.181  -1.689   3.543  0.00  0.00    -0.277 OA
ENDBRANCH  61  62
ENDBRANCH  26  61
BRANCH   1  65
ATOM     65  C   UNL d   1      -3.048   3.026   2.771  0.00  0.00     0.043 C 
BRANCH  65  66
ATOM     66  C   UNL d   1      -3.463   4.447   3.131  0.00  0.00     0.102 C 
BRANCH  66  67
ATOM     67  C   UNL d   1      -4.934   4.649   2.971  0.00  0.00     0.231 C 
ATOM     68  N   UNL d   1      -5.423   5.685   2.127  0.00  0.00    -0.062 NA
ATOM     69  O   UNL d   1      -5.744   3.949   3.644  0.00  0.00    -0.277 OA
ENDBRANCH  66  67
ENDBRANCH  65  66
ENDBRANCH   1  65
BRANCH  11  70
ATOM     70  C   UNL d   1      -6.286  -1.591  -0.365  0.00  0.00     0.073 C 
BRANCH  70  71
ATOM     71  C   UNL d   1      -6.938  -2.917  -0.161  0.00  0.00    -0.056 A 
ATOM     72  C   UNL d   1      -6.219  -3.969   0.428  0.00  0.00     0.010 A 
ATOM     73  C   UNL d   1      -6.828  -5.219   0.601  0.00  0.00     0.037 A 
ATOM     74  C   UNL d   1      -8.152  -5.420   0.180  0.00  0.00     0.065 A 
ATOM     75  C   UNL d   1      -8.868  -4.373  -0.411  0.00  0.00     0.037 A 
ATOM     76  C   UNL d   1      -8.262  -3.124  -0.582  0.00  0.00     0.010 A 
BRANCH  74  77
ATOM     77  O   UNL d   1      -8.758  -6.657   0.354  0.00  0.00    -0.361 OA
ATOM     78  HO  UNL d   1      -9.654  -6.793   0.069  1.00  0.00     0.217 HD
ENDBRANCH  74  77
ENDBRANCH  70  71
ENDBRANCH  11  70
BRANCH   6  79
ATOM     79  C   UNL d   1      -6.676   3.102  -2.064  0.00  0.00     0.073 C 
BRANCH  79  80
ATOM     80  C   UNL d   1      -7.799   2.984  -1.081  0.00  0.00    -0.056 A 
ATOM     81  C   UNL d   1      -8.718   1.928  -1.190  0.00  0.00     0.007 A 
ATOM     82  C   UNL d   1      -9.794   1.835  -0.298  0.00  0.00     0.001 A 
ATOM     83  C   UNL d   1      -9.945   2.792   0.704  0.00  0.00     0.000 A 
ATOM     84  C   UNL d   1      -9.024   3.842   0.822  0.00  0.00     0.001 A 
ATOM     85  C   UNL d   1      -7.949   3.938  -0.071  0.00  0.00     0.007 A 
ENDBRANCH  79  80
ENDBRANCH   6  79
TORSDOF 20
