REMARK  8 active torsions:
REMARK  status: ('A' for Active; 'I' for Inactive)
REMARK    1  A    between atoms: C_3  and  C_2 
REMARK    2  A    between atoms: C_3  and  C_5 
REMARK    3  A    between atoms: C_5  and  O_7 
REMARK    4  A    between atoms: C_8  and  O_7 
REMARK    5  A    between atoms: C_18  and  C_19 
REMARK    6  A    between atoms: C_19  and  C_20 
REMARK    7  A    between atoms: C_21  and  C_20 
REMARK    8  A    between atoms: C_23  and  O_24 
ROOT
ATOM      1  C   UNL d   1      -1.857  -1.393   1.230  0.00  0.00     0.141 C 
ATOM      2  C   UNL d   1      -3.043  -2.357   1.456  0.00  0.00     0.041 C 
ATOM      3  C   UNL d   1      -2.917  -3.705   0.734  0.00  0.00     0.007 C 
ATOM      4  C   UNL d   1      -4.276  -4.361   0.621  0.00  0.00     0.014 C 
ATOM      5  C   UNL d   1      -2.305  -3.550  -0.625  0.00  0.00    -0.015 C 
ATOM      6  C   UNL d   1      -1.239  -2.768  -0.778  0.00  0.00    -0.055 C 
ATOM      7  C   UNL d   1      -0.595  -2.661  -2.096  0.00  0.00     0.004 C 
ATOM      8  C   UNL d   1       0.577  -2.036  -2.236  0.00  0.00    -0.022 C 
ATOM      9  C   UNL d   1       1.321  -1.482  -1.054  0.00  0.00     0.009 C 
ATOM     10  C   UNL d   1       2.243  -2.554  -0.486  0.00  0.00     0.014 C 
ATOM     11  C   UNL d   1       0.336  -0.950   0.004  0.00  0.00     0.004 C 
ATOM     12  C   UNL d   1      -0.698  -2.016   0.419  0.00  0.00     0.052 C 
ENDROOT
BRANCH  11  13
ATOM     13  C   UNL d   1       1.052  -0.366   1.220  0.00  0.00     0.009 C 
BRANCH  13  14
ATOM     14  C   UNL d   1       1.407   1.099   0.996  0.00  0.00     0.033 C 
BRANCH  14  15
ATOM     15  C   UNL d   1       2.588   1.251   0.050  0.00  0.00     0.134 C 
ATOM     16  C   UNL d   1       3.887   0.812   0.723  0.00  0.00     0.065 C 
ATOM     17  C   UNL d   1       5.057   1.034  -0.232  0.00  0.00     0.130 C 
ATOM     18  C   UNL d   1       5.188   2.509  -0.612  0.00  0.00     0.142 C 
ATOM     19  C   UNL d   1       3.861   3.147  -0.901  0.00  0.00     0.261 C 
ATOM     20  O   UNL d   1       3.825   4.239  -1.525  0.00  0.00    -0.265 OA
ATOM     21  O   UNL d   1       2.675   2.602  -0.398  0.00  0.00    -0.316 OA
BRANCH  17  22
ATOM     22  O   UNL d   1       4.906   0.252  -1.379  0.00  0.00    -0.395 OA
ATOM     23  HO  UNL d   1       5.635   0.390  -1.973  1.00  0.00     0.210 HD
ENDBRANCH  17  22
ENDBRANCH  14  15
ENDBRANCH  13  14
ENDBRANCH  11  13
BRANCH   1  24
ATOM     24  O   UNL d   1      -2.327  -0.210   0.591  0.00  0.00    -0.315 OA
BRANCH  24  25
ATOM     25  C   UNL d   1      -2.957   0.818   1.294  0.00  0.00     0.263 C 
ATOM     26  O   UNL d   1      -3.128   0.734   2.542  0.00  0.00    -0.265 OA
BRANCH  25  27
ATOM     27  C   UNL d   1      -3.398   2.035   0.551  0.00  0.00     0.081 C 
ATOM     28  C   UNL d   1      -4.885   2.273   0.762  0.00  0.00     0.020 C 
BRANCH  27  29
ATOM     29  C   UNL d   1      -2.591   3.243   0.997  0.00  0.00     0.010 C 
ATOM     30  C   UNL d   1      -2.706   4.363  -0.020  0.00  0.00     0.006 C 
ENDBRANCH  27  29
ENDBRANCH  25  27
ENDBRANCH  24  25
ENDBRANCH   1  24
TORSDOF 8
