REMARK  5 active torsions:
REMARK  status: ('A' for Active; 'I' for Inactive)
REMARK    1  A    between atoms: C_2  and  O_3 
REMARK    2  A    between atoms: C_2  and  C_26 
REMARK    3  A    between atoms: O_3  and  C_4 
REMARK    4  A    between atoms: C_6  and  C_12 
REMARK    5  A    between atoms: N_16  and  C_18 
ROOT
ATOM      1  C   UNL d   1      -1.149   0.180   0.802  0.00  0.00     0.111 A 
ATOM      2  C   UNL d   1       0.076  -0.069   0.178  0.00  0.00     0.054 A 
ATOM      3  C   UNL d   1       1.271   0.404   0.727  0.00  0.00    -0.005 A 
ATOM      4  C   UNL d   1       1.217   1.138   1.915  0.00  0.00     0.101 A 
ATOM      5  N   UNL d   1       0.023   1.387   2.513  0.00  0.00    -0.351 N 
ATOM      6  HN  UNL d   1       0.007   1.929   3.377  1.00  0.00     0.166 HD
ATOM      7  C   UNL d   1      -1.152   0.937   1.997  0.00  0.00     0.149 A 
ATOM      8  N   UNL d   1      -2.365   1.277   2.661  0.00  0.00    -0.080 NA
ENDROOT
BRANCH   3   9
ATOM      9  C   UNL d   1       2.560   0.133   0.068  0.00  0.00     0.009 A 
ATOM     10  C   UNL d   1       2.753  -0.578  -1.105  0.00  0.00     0.121 A 
ATOM     11  N   UNL d   1       4.075  -0.594  -1.362  0.00  0.00    -0.309 N 
ATOM     12  N   UNL d   1       4.691   0.073  -0.398  0.00  0.00    -0.298 N 
ATOM     13  HN  UNL d   1       4.525  -1.043  -2.160  1.00  0.00     0.186 HD
ATOM     14  C   UNL d   1       3.808   0.538   0.501  0.00  0.00     0.124 A 
BRANCH  12  15
ATOM     15  C   UNL d   1       6.130   0.274  -0.327  0.00  0.00     0.110 C 
ATOM     16  C   UNL d   1       6.622   1.074  -1.539  0.00  0.00     0.055 C 
ATOM     17  C   UNL d   1       8.122   0.882  -1.790  0.00  0.00     0.234 C 
ATOM     18  N   UNL d   1       8.803   0.465  -0.566  0.00  0.00    -0.075 N 
ATOM     19  C   UNL d   1       8.385  -0.902  -0.235  0.00  0.00     0.234 C 
ATOM     20  HN2 UNL d   1       9.817   0.557  -0.634  1.00  0.00     0.277 HD
ATOM     21  HN1 UNL d   1       8.652   1.115   0.205  1.00  0.00     0.277 HD
ATOM     22  C   UNL d   1       6.856  -1.067  -0.203  0.00  0.00     0.055 C 
ENDBRANCH  12  15
ENDBRANCH   3   9
BRANCH   1  23
ATOM     23  O   UNL d   1      -2.303  -0.331   0.189  0.00  0.00    -0.338 OA
BRANCH  23  24
ATOM     24  C   UNL d   1      -3.578  -0.440   0.812  0.00  0.00     0.161 C 
ATOM     25  C   UNL d   1      -3.622  -1.633   1.754  0.00  0.00     0.045 C 
BRANCH  24  26
ATOM     26  C   UNL d   1      -4.672  -0.517  -0.218  0.00  0.00     0.017 A 
ATOM     27  C   UNL d   1      -4.679  -1.510  -1.227  0.00  0.00     0.044 A 
ATOM     28 CL   UNL d   1      -3.418  -2.728  -1.361  0.00  0.00    -0.084 Cl
ATOM     29  C   UNL d   1      -5.715  -1.545  -2.163  0.00  0.00     0.028 A 
ATOM     30  C   UNL d   1      -6.746  -0.609  -2.112  0.00  0.00     0.046 A 
ATOM     31  C   UNL d   1      -6.751   0.374  -1.123  0.00  0.00     0.138 A 
ATOM     32  F   UNL d   1      -7.763   1.277  -1.090  0.00  0.00    -0.204 F 
ATOM     33  C   UNL d   1      -5.720   0.426  -0.175  0.00  0.00     0.083 A 
ATOM     34 CL   UNL d   1      -5.760   1.685   1.058  0.00  0.00    -0.080 Cl
ENDBRANCH  24  26
ENDBRANCH  23  24
ENDBRANCH   1  23
TORSDOF 5
