REMARK  16 active torsions:
REMARK  status: ('A' for Active; 'I' for Inactive)
REMARK    1  A    between atoms: N_1  and  C_5 
REMARK    2  A    between atoms: C_6  and  C_5 
REMARK    3  A    between atoms: C_8  and  O_9 
REMARK    4  A    between atoms: C_10  and  O_9 
REMARK    5  A    between atoms: C_11  and  N_12 
REMARK    6  A    between atoms: C_17  and  N_18 
REMARK    7  A    between atoms: C_22  and  O_23 
REMARK    8  A    between atoms: C_25  and  O_26 
REMARK    9  A    between atoms: C_27  and  O_26 
REMARK   10  A    between atoms: C_29  and  C_30 
REMARK   11  A    between atoms: C_30  and  O_31 
REMARK   12  A    between atoms: C_33  and  O_34 
REMARK   13  A    between atoms: C_36  and  O_37 
REMARK   14  A    between atoms: C_39  and  N_40 
REMARK   15  A    between atoms: C_44  and  O_45 
REMARK   16  A    between atoms: C_47  and  O_48 
ROOT
ATOM      1  C   UNL d   1       0.121  -0.841   0.903  0.00  0.00     0.186 C 
ATOM      2  C   UNL d   1      -0.254  -2.287   0.554  0.00  0.00     0.217 C 
ATOM      3  C   UNL d   1       0.196  -3.271   1.636  0.00  0.00     0.071 C 
ATOM      4  C   UNL d   1       1.710  -3.243   1.897  0.00  0.00     0.216 C 
ATOM      5  C   UNL d   1       2.396  -1.926   1.517  0.00  0.00     0.180 C 
ATOM      6  C   UNL d   1       1.456  -0.723   1.667  0.00  0.00     0.186 C 
ENDROOT
BRANCH   1   7
ATOM      7  O   UNL d   1      -0.897  -0.254   1.659  0.00  0.00    -0.349 OA
BRANCH   7   8
ATOM      8  C   UNL d   1      -1.621   0.524   0.751  0.00  0.00     0.294 C 
ATOM      9  O   UNL d   1      -2.944   0.054   0.649  0.00  0.00    -0.349 OA
ATOM     10  C   UNL d   1      -3.516   0.555  -0.550  0.00  0.00     0.181 C 
ATOM     11  C   UNL d   1      -3.206   2.039  -0.839  0.00  0.00     0.179 C 
ATOM     12  C   UNL d   1      -2.739   2.766   0.425  0.00  0.00     0.184 C 
ATOM     13  C   UNL d   1      -1.615   2.010   1.142  0.00  0.00     0.269 C 
BRANCH  10  14
ATOM     14  C   UNL d   1      -3.152  -0.315  -1.746  0.00  0.00     0.264 C 
BRANCH  14  15
ATOM     15  N   UNL d   1      -3.678  -1.656  -1.562  0.00  0.00    -0.077 N 
ATOM     16  HN3 UNL d   1      -3.372  -2.069  -0.681  1.00  0.00     0.274 HD
ATOM     17  HN2 UNL d   1      -4.682  -1.652  -1.384  1.00  0.00     0.274 HD
ATOM     18  HN1 UNL d   1      -3.434  -2.238  -2.363  1.00  0.00     0.274 HD
ENDBRANCH  14  15
ENDBRANCH  10  14
BRANCH  11  19
ATOM     19  O   UNL d   1      -4.342   2.662  -1.356  0.00  0.00    -0.390 OA
ATOM     20  HO  UNL d   1      -4.632   2.211  -2.141  1.00  0.00     0.210 HD
ENDBRANCH  11  19
BRANCH  12  21
ATOM     21  O   UNL d   1      -2.306   4.052   0.104  0.00  0.00    -0.391 OA
ATOM     22  HO  UNL d   1      -3.003   4.521  -0.340  1.00  0.00     0.210 HD
ENDBRANCH  12  21
BRANCH  13  23
ATOM     23  N   UNL d   1      -1.781   2.166   2.578  0.00  0.00    -0.068 N 
ATOM     24  HN3 UNL d   1      -2.618   1.690   2.915  1.00  0.00     0.275 HD
ATOM     25  HN2 UNL d   1      -1.083   1.635   3.099  1.00  0.00     0.275 HD
ATOM     26  HN1 UNL d   1      -1.776   3.152   2.838  1.00  0.00     0.275 HD
ENDBRANCH  13  23
ENDBRANCH   7   8
ENDBRANCH   1   7
BRANCH   2  27
ATOM     27  N   UNL d   1       0.304  -2.655  -0.737  0.00  0.00    -0.072 N 
ATOM     28  HN3 UNL d   1       0.028  -2.002  -1.471  1.00  0.00     0.274 HD
ATOM     29  HN2 UNL d   1       1.312  -2.504  -0.773  1.00  0.00     0.274 HD
ATOM     30  HN1 UNL d   1       0.054  -3.616  -0.969  1.00  0.00     0.274 HD
ENDBRANCH   2  27
BRANCH   6  31
ATOM     31  O   UNL d   1       2.112   0.534   1.557  0.00  0.00    -0.348 OA
BRANCH  31  32
ATOM     32  C   UNL d   1       2.348   0.953   0.219  0.00  0.00     0.292 C 
ATOM     33  O   UNL d   1       1.177   1.415  -0.408  0.00  0.00    -0.348 OA
ATOM     34  C   UNL d   1       1.366   1.185  -1.780  0.00  0.00     0.179 C 
ATOM     35  C   UNL d   1       2.269  -0.018  -1.943  0.00  0.00     0.182 C 
ATOM     36  C   UNL d   1       3.075  -0.044  -0.668  0.00  0.00     0.204 C 
BRANCH  34  37
ATOM     37  C   UNL d   1       0.022   0.938  -2.442  0.00  0.00     0.198 C 
BRANCH  37  38
ATOM     38  O   UNL d   1       0.162   0.951  -3.830  0.00  0.00    -0.398 OA
ATOM     39  HO  UNL d   1      -0.679   0.796  -4.244  1.00  0.00     0.209 HD
ENDBRANCH  37  38
ENDBRANCH  34  37
BRANCH  35  40
ATOM     40  O   UNL d   1       3.074   0.127  -3.076  0.00  0.00    -0.390 OA
ATOM     41  HO  UNL d   1       3.640  -0.628  -3.178  1.00  0.00     0.210 HD
ENDBRANCH  35  40
BRANCH  36  42
ATOM     42  O   UNL d   1       4.385   0.398  -0.871  0.00  0.00    -0.388 OA
ATOM     43  HO  UNL d   1       4.893   0.382  -0.068  1.00  0.00     0.210 HD
ENDBRANCH  36  42
ENDBRANCH  31  32
ENDBRANCH   6  31
BRANCH   5  44
ATOM     44  O   UNL d   1       3.530  -1.750   2.311  0.00  0.00    -0.391 OA
ATOM     45  HO  UNL d   1       3.956  -0.934   2.076  1.00  0.00     0.210 HD
ENDBRANCH   5  44
BRANCH   4  46
ATOM     46  N   UNL d   1       2.348  -4.344   1.196  0.00  0.00    -0.072 N 
ATOM     47  HN3 UNL d   1       1.933  -5.244   1.437  1.00  0.00     0.274 HD
ATOM     48  HN2 UNL d   1       2.130  -4.343   0.200  1.00  0.00     0.274 HD
ATOM     49  HN1 UNL d   1       3.353  -4.325   1.369  1.00  0.00     0.274 HD
ENDBRANCH   4  46
TORSDOF 16
