REMARK  5 active torsions:
REMARK  status: ('A' for Active; 'I' for Inactive)
REMARK    1  A    between atoms: C_16  and  O_28 
REMARK    2  A    between atoms: C_19  and  C_20 
REMARK    3  A    between atoms: C_19  and  O_25 
REMARK    4  A    between atoms: C_20  and  C_22 
REMARK    5  A    between atoms: C_22  and  O_23 
ROOT
ATOM      1  C   UNL d   1      -3.737  -0.682   2.913  0.00  0.00     0.013 C 
ATOM      2  C   UNL d   1      -3.038  -1.170   1.652  0.00  0.00     0.025 C 
ATOM      3  C   UNL d   1      -1.538  -1.294   1.934  0.00  0.00     0.013 C 
ATOM      4  C   UNL d   1      -0.893  -0.545   0.791  0.00  0.00     0.005 C 
ATOM      5  C   UNL d   1       0.597  -0.191   0.792  0.00  0.00     0.035 C 
ATOM      6  C   UNL d   1       1.218   0.111   2.168  0.00  0.00     0.013 C 
ATOM      7  C   UNL d   1       2.610   0.772   2.055  0.00  0.00     0.036 C 
ATOM      8  C   UNL d   1       3.252   0.475   0.728  0.00  0.00    -0.061 C 
ATOM      9  C   UNL d   1       4.417  -0.179   0.711  0.00  0.00     0.058 C 
ATOM     10  C   UNL d   1       4.913  -0.748  -0.548  0.00  0.00     0.172 C 
ATOM     11  O   UNL d   1       6.082  -1.203  -0.629  0.00  0.00    -0.289 OA
ATOM     12  C   UNL d   1       3.978  -0.886  -1.671  0.00  0.00     0.052 C 
ATOM     13  C   UNL d   1       2.817  -0.224  -1.649  0.00  0.00    -0.006 C 
ATOM     14  C   UNL d   1       2.489   0.792  -0.569  0.00  0.00     0.036 C 
ATOM     15  C   UNL d   1       0.953   0.893  -0.258  0.00  0.00     0.147 C 
ATOM     16  C   UNL d   1      -0.000   0.795  -1.486  0.00  0.00     0.160 C 
ATOM     17  C   UNL d   1      -1.481   1.032  -1.090  0.00  0.00     0.048 C 
ATOM     18  C   UNL d   1      -1.857   0.525   0.326  0.00  0.00     0.001 C 
ATOM     19  C   UNL d   1      -3.210  -0.219   0.431  0.00  0.00     0.131 C 
ATOM     20  C   UNL d   1      -1.831   1.714   1.293  0.00  0.00     0.019 C 
ATOM     21  F   UNL d   1       0.727   2.141   0.315  0.00  0.00    -0.238 F 
ATOM     22  C   UNL d   1       2.995   2.135  -1.088  0.00  0.00     0.028 C 
ENDROOT
BRANCH  19  23
ATOM     23  C   UNL d   1      -3.500  -1.067  -0.799  0.00  0.00     0.185 C 
ATOM     24  O   UNL d   1      -2.743  -1.974  -1.115  0.00  0.00    -0.292 OA
BRANCH  23  25
ATOM     25  C   UNL d   1      -4.715  -0.821  -1.639  0.00  0.00     0.245 C 
BRANCH  25  26
ATOM     26  O   UNL d   1      -4.333  -0.418  -2.918  0.00  0.00    -0.393 OA
ATOM     27  HO  UNL d   1      -5.104  -0.262  -3.451  1.00  0.00     0.209 HD
ENDBRANCH  25  26
ENDBRANCH  23  25
ENDBRANCH  19  23
BRANCH  19  28
ATOM     28  O   UNL d   1      -4.265   0.687   0.628  0.00  0.00    -0.381 OA
ATOM     29  HO  UNL d   1      -4.370   1.267  -0.117  1.00  0.00     0.211 HD
ENDBRANCH  19  28
BRANCH  16  30
ATOM     30  O   UNL d   1       0.095  -0.453  -2.109  0.00  0.00    -0.392 OA
ATOM     31  HO  UNL d   1      -0.487  -0.513  -2.858  1.00  0.00     0.210 HD
ENDBRANCH  16  30
TORSDOF 5
