REMARK  2 active torsions:
REMARK  status: ('A' for Active; 'I' for Inactive)
REMARK    1  A    between atoms: C_3  and  N_4 
REMARK    2  A    between atoms: C_11  and  C_17 
ROOT
ATOM      1  C   UNL d   1      -2.731  -0.861   2.929  0.00  0.00     0.014 C 
ATOM      2  C   UNL d   1      -3.017  -0.800   1.760  0.00  0.00    -0.097 C 
ATOM      3  C   UNL d   1      -3.362  -0.725   0.337  0.00  0.00     0.225 C 
ENDROOT
BRANCH   3   4
ATOM      4  N   UNL d   1      -2.147  -0.777  -0.472  0.00  0.00    -0.305 N 
ATOM      5  C   UNL d   1      -1.728  -2.038  -1.020  0.00  0.00     0.242 C 
ATOM      6  C   UNL d   1      -0.447  -2.144  -1.770  0.00  0.00     0.223 C 
ATOM      7  O   UNL d   1      -2.427  -3.073  -0.854  0.00  0.00    -0.271 OA
ATOM      8  N   UNL d   1       0.648  -1.804  -0.876  0.00  0.00    -0.380 N 
ATOM      9  C   UNL d   1       0.854  -0.615  -0.385  0.00  0.00     0.051 C 
ATOM     10  HN  UNL d   1       1.299  -2.545  -0.617  1.00  0.00     0.160 HD
ATOM     11  C   UNL d   1      -0.027   0.536  -0.747  0.00  0.00     0.020 A 
ATOM     12  C   UNL d   1      -1.446   0.448  -0.768  0.00  0.00     0.051 A 
ATOM     13  C   UNL d   1       0.582   1.762  -1.058  0.00  0.00     0.040 A 
ATOM     14  C   UNL d   1      -2.197   1.596  -1.071  0.00  0.00     0.032 A 
ATOM     15  C   UNL d   1      -1.571   2.805  -1.370  0.00  0.00     0.026 A 
ATOM     16  C   UNL d   1      -0.181   2.887  -1.370  0.00  0.00     0.035 A 
ATOM     17 CL   UNL d   1       0.609   4.402  -1.748  0.00  0.00    -0.084 Cl
BRANCH   9  18
ATOM     18  C   UNL d   1       2.010  -0.425   0.529  0.00  0.00    -0.009 A 
ATOM     19  C   UNL d   1       3.016  -1.402   0.607  0.00  0.00     0.014 A 
ATOM     20  C   UNL d   1       4.097  -1.242   1.480  0.00  0.00     0.001 A 
ATOM     21  C   UNL d   1       4.180  -0.106   2.288  0.00  0.00     0.000 A 
ATOM     22  C   UNL d   1       3.182   0.869   2.226  0.00  0.00     0.001 A 
ATOM     23  C   UNL d   1       2.102   0.709   1.354  0.00  0.00     0.014 A 
ENDBRANCH   9  18
ENDBRANCH   3   4
TORSDOF 2
