REMARK  5 active torsions:
REMARK  status: ('A' for Active; 'I' for Inactive)
REMARK    1  A    between atoms: N_2  and  C_4 
REMARK    2  A    between atoms: C_4  and  C_5 
REMARK    3  A    between atoms: C_5  and  C_6 
REMARK    4  A    between atoms: C_6  and  N_7 
REMARK    5  A    between atoms: C_18  and  C_21 
ROOT
ATOM      1  N   UNL d   1      -0.994  -0.461  -0.083  0.00  0.00    -0.345 N 
ATOM      2  C   UNL d   1      -1.736  -1.696  -0.136  0.00  0.00     0.052 A 
ATOM      3  C   UNL d   1      -2.837  -1.827  -0.998  0.00  0.00     0.031 A 
ATOM      4  C   UNL d   1      -3.457  -3.068  -1.167  0.00  0.00     0.002 A 
ATOM      5  C   UNL d   1      -2.976  -4.190  -0.488  0.00  0.00     0.002 A 
ATOM      6  C   UNL d   1      -1.887  -4.068   0.379  0.00  0.00     0.021 A 
ATOM      7  C   UNL d   1      -1.273  -2.826   0.563  0.00  0.00     0.032 A 
ATOM      8  S   UNL d   1       0.004  -2.650   1.808  0.00  0.00    -0.086 SA
ATOM      9  C   UNL d   1       1.024  -1.568   0.807  0.00  0.00     0.032 A 
ATOM     10  C   UNL d   1       2.413  -1.706   0.845  0.00  0.00     0.022 A 
ATOM     11  C   UNL d   1       3.227  -0.783   0.183  0.00  0.00     0.017 A 
ATOM     12  C   UNL d   1       2.658   0.285  -0.523  0.00  0.00     0.050 A 
ATOM     13  C   UNL d   1       1.263   0.419  -0.559  0.00  0.00     0.047 A 
ATOM     14  C   UNL d   1       0.436  -0.508   0.093  0.00  0.00     0.053 A 
ENDROOT
BRANCH   1  15
ATOM     15  C   UNL d   1      -1.649   0.800  -0.418  0.00  0.00     0.131 C 
BRANCH  15  16
ATOM     16  C   UNL d   1      -1.955   1.573   0.852  0.00  0.00     0.050 C 
BRANCH  16  17
ATOM     17  C   UNL d   1      -2.538   2.935   0.509  0.00  0.00     0.273 C 
BRANCH  17  18
ATOM     18  N   UNL d   1      -1.512   3.796  -0.059  0.00  0.00     0.080 N 
ATOM     19  C   UNL d   1      -0.980   4.601   1.027  0.00  0.00     0.309 C 
ATOM     20  C   UNL d   1      -2.190   4.712  -0.958  0.00  0.00     0.309 C 
ENDBRANCH  17  18
ENDBRANCH  16  17
ENDBRANCH  15  16
ENDBRANCH   1  15
BRANCH  12  21
ATOM     21  C   UNL d   1       3.533   1.313  -1.180  0.00  0.00     0.417 C 
ATOM     22  F   UNL d   1       4.728   0.743  -1.585  0.00  0.00    -0.166 F 
ATOM     23  F   UNL d   1       2.901   1.846  -2.291  0.00  0.00    -0.166 F 
ATOM     24  F   UNL d   1       3.798   2.328  -0.281  0.00  0.00    -0.166 F 
ENDBRANCH  12  21
TORSDOF 5
