REMARK  12 active torsions:
REMARK  status: ('A' for Active; 'I' for Inactive)
REMARK    1  A    between atoms: C_4  and  C_2 
REMARK    2  A    between atoms: C_13  and  C_14 
REMARK    3  A    between atoms: C_13  and  O_31 
REMARK    4  A    between atoms: C_14  and  C_15 
REMARK    5  A    between atoms: C_15  and  N_38 
REMARK    6  A    between atoms: C_17  and  C_18 
REMARK    7  A    between atoms: C_17  and  N_38 
REMARK    8  A    between atoms: C_18  and  C_19 
REMARK    9  A    between atoms: C_19  and  C_20 
REMARK   10  A    between atoms: O_31  and  C_32 
REMARK   11  A    between atoms: C_32  and  C_34 
REMARK   12  A    between atoms: C_34  and  O_35 
ROOT
ATOM      1  C   UNL d   1      -2.187  -0.643  -0.491  0.00  0.00     0.058 C 
ATOM      2  C   UNL d   1      -1.864  -0.302   0.949  0.00  0.00    -0.044 A 
ATOM      3  C   UNL d   1      -1.458  -1.319   1.822  0.00  0.00     0.011 A 
ATOM      4  C   UNL d   1      -1.176  -1.034   3.159  0.00  0.00     0.043 A 
ATOM      5  C   UNL d   1      -1.298   0.272   3.635  0.00  0.00     0.117 A 
ATOM      6  C   UNL d   1      -1.708   1.294   2.774  0.00  0.00     0.049 A 
ATOM      7  C   UNL d   1      -2.006   1.017   1.436  0.00  0.00    -0.048 A 
ATOM      8  C   UNL d   1      -2.357   2.166   0.532  0.00  0.00     0.042 C 
ATOM      9  C   UNL d   1      -2.897   1.722  -0.829  0.00  0.00     0.044 C 
ATOM     10  C   UNL d   1      -2.052   0.588  -1.423  0.00  0.00     0.081 C 
ATOM     11  F   UNL d   1      -1.012   0.550   4.929  0.00  0.00    -0.206 F 
ENDROOT
BRANCH  10  12
ATOM     12  C   UNL d   1      -2.554   0.287  -2.849  0.00  0.00     0.069 C 
BRANCH  12  13
ATOM     13  C   UNL d   1      -1.950  -0.974  -3.470  0.00  0.00     0.275 C 
BRANCH  13  14
ATOM     14  N   UNL d   1      -0.544  -0.782  -3.787  0.00  0.00     0.084 N 
ATOM     15  C   UNL d   1      -0.402  -1.014  -5.213  0.00  0.00     0.309 C 
BRANCH  14  16
ATOM     16  C   UNL d   1       0.181  -1.847  -3.115  0.00  0.00     0.272 C 
BRANCH  16  17
ATOM     17  C   UNL d   1       1.183  -1.243  -2.156  0.00  0.00     0.038 C 
BRANCH  17  18
ATOM     18  C   UNL d   1       1.658  -2.293  -1.172  0.00  0.00     0.078 C 
BRANCH  18  19
ATOM     19  C   UNL d   1       2.324  -1.621  -0.025  0.00  0.00     0.082 A 
ATOM     20  N   UNL d   1       1.626  -1.018   0.972  0.00  0.00    -0.344 N 
ATOM     21  C   UNL d   1       2.598  -0.519   1.746  0.00  0.00     0.060 A 
ATOM     22  HN  UNL d   1       0.616  -0.960   1.099  1.00  0.00     0.167 HD
ATOM     23  C   UNL d   1       3.816  -0.814   1.216  0.00  0.00     0.060 A 
ATOM     24  C   UNL d   1       2.458   0.214   2.921  0.00  0.00     0.032 A 
ATOM     25  N   UNL d   1       3.673  -1.514   0.081  0.00  0.00    -0.344 N 
ATOM     26  C   UNL d   1       5.001  -0.402   1.815  0.00  0.00     0.032 A 
ATOM     27  HN  UNL d   1       4.395  -1.874  -0.543  1.00  0.00     0.167 HD
ATOM     28  C   UNL d   1       4.900   0.340   3.006  0.00  0.00     0.002 A 
ATOM     29  C   UNL d   1       3.635   0.646   3.557  0.00  0.00     0.002 A 
ENDBRANCH  18  19
ENDBRANCH  17  18
ENDBRANCH  16  17
ENDBRANCH  14  16
ENDBRANCH  13  14
ENDBRANCH  12  13
ENDBRANCH  10  12
BRANCH  10  30
ATOM     30  O   UNL d   1      -0.673   0.975  -1.467  0.00  0.00    -0.308 OA
BRANCH  30  31
ATOM     31  C   UNL d   1      -0.176   2.091  -2.153  0.00  0.00     0.283 C 
ATOM     32  O   UNL d   1      -0.944   2.871  -2.776  0.00  0.00    -0.263 OA
BRANCH  31  33
ATOM     33  C   UNL d   1       1.283   2.369  -2.127  0.00  0.00     0.277 C 
BRANCH  33  34
ATOM     34  O   UNL d   1       1.655   2.802  -0.856  0.00  0.00    -0.386 OA
ATOM     35  C   UNL d   1       2.857   2.146  -0.599  0.00  0.00     0.202 C 
ENDBRANCH  33  34
ENDBRANCH  31  33
ENDBRANCH  30  31
ENDBRANCH  10  30
BRANCH   1  36
ATOM     36  C   UNL d   1      -3.523  -1.403  -0.648  0.00  0.00    -0.011 C 
ATOM     37  C   UNL d   1      -4.687  -0.755   0.088  0.00  0.00     0.010 C 
ATOM     38  C   UNL d   1      -3.382  -2.854  -0.233  0.00  0.00     0.010 C 
ENDBRANCH   1  36
TORSDOF 12
