REMARK  3 active torsions:
REMARK  status: ('A' for Active; 'I' for Inactive)
REMARK    1  A    between atoms: C_8  and  N_9 
REMARK       I    between atoms: N_9  and  C_11 
REMARK    2  A    between atoms: C_11  and  C_13 
REMARK    3  A    between atoms: C_13  and  C_14 
ROOT
ATOM      1  N   UNL d   1      -0.944   0.564  -0.229  0.00  0.00    -0.326 N 
ATOM      2  HN  UNL d   1      -0.661   1.173  -0.997  1.00  0.00     0.169 HD
ATOM      3  C   UNL d   1       0.051   0.214   0.739  0.00  0.00     0.224 C 
ATOM      4  O   UNL d   1      -0.171  -0.684   1.595  0.00  0.00    -0.273 OA
ENDROOT
BRANCH   3   5
ATOM      5  C   UNL d   1       1.395   0.870   0.687  0.00  0.00     0.144 C 
BRANCH   5   6
ATOM      6  C   UNL d   1       2.386   0.164  -0.247  0.00  0.00     0.168 C 
ATOM      7  C   UNL d   1       2.639  -1.266   0.210  0.00  0.00     0.044 C 
ATOM      8  C   UNL d   1       3.983  -1.228   0.879  0.00  0.00     0.033 C 
ATOM      9  C   UNL d   1       4.685  -0.066   0.223  0.00  0.00     0.273 C 
ATOM     10  N   UNL d   1       3.665   0.884  -0.212  0.00  0.00     0.098 N 
ATOM     11  C   UNL d   1       3.989   1.268  -1.583  0.00  0.00     0.273 C 
ATOM     12  C   UNL d   1       3.079   0.506  -2.519  0.00  0.00     0.033 C 
ATOM     13  C   UNL d   1       1.879   0.170  -1.680  0.00  0.00     0.044 C 
ENDBRANCH   5   6
ENDBRANCH   3   5
BRANCH   1  14
ATOM     14  C   UNL d   1      -2.310   0.122  -0.198  0.00  0.00     0.046 A 
ATOM     15  C   UNL d   1      -2.886  -0.403  -1.371  0.00  0.00    -0.035 A 
ATOM     16  C   UNL d   1      -4.215  -0.835  -1.368  0.00  0.00     0.009 A 
ATOM     17  C   UNL d   1      -2.093  -0.533  -2.626  0.00  0.00     0.050 C 
ATOM     18  C   UNL d   1      -4.987  -0.729  -0.212  0.00  0.00     0.001 A 
ATOM     19  C   UNL d   1      -4.436  -0.180   0.946  0.00  0.00     0.009 A 
ATOM     20  C   UNL d   1      -3.107   0.252   0.962  0.00  0.00    -0.035 A 
ATOM     21  C   UNL d   1      -2.600   0.909   2.201  0.00  0.00     0.050 C 
ENDBRANCH   1  14
TORSDOF 3
