REMARK  4 active torsions:
REMARK  status: ('A' for Active; 'I' for Inactive)
REMARK    1  A    between atoms: N_3  and  C_13 
REMARK    2  A    between atoms: C_5  and  C_6 
REMARK    3  A    between atoms: C_6  and  N_7 
REMARK       I    between atoms: N_7  and  C_9 
REMARK    4  A    between atoms: C_17  and  N_20 
ROOT
ATOM      1  C   UNL d   1       0.070   0.385   0.042  0.00  0.00     0.042 A 
ATOM      2  C   UNL d   1       0.650  -0.284  -1.044  0.00  0.00     0.074 A 
ATOM      3  C   UNL d   1       2.022  -0.552  -1.071  0.00  0.00     0.145 A 
ATOM      4  F   UNL d   1       2.536  -1.171  -2.163  0.00  0.00    -0.204 F 
ATOM      5  C   UNL d   1       2.846  -0.152   0.003  0.00  0.00     0.069 A 
ATOM      6  C   UNL d   1       2.258   0.530   1.082  0.00  0.00     0.035 A 
ATOM      7  C   UNL d   1       0.887   0.793   1.102  0.00  0.00     0.032 A 
ENDROOT
BRANCH   1   8
ATOM      8  N   UNL d   1      -1.342   0.660   0.073  0.00  0.00    -0.291 N 
ATOM      9  C   UNL d   1      -2.315   0.323  -0.897  0.00  0.00     0.368 A 
ATOM     10  O   UNL d   1      -2.067  -0.286  -1.971  0.00  0.00    -0.238 OA
ATOM     11  O   UNL d   1      -3.576   0.733  -0.536  0.00  0.00    -0.295 OA
ATOM     12  C   UNL d   1      -3.522   1.388   0.727  0.00  0.00     0.170 A 
ATOM     13  C   UNL d   1      -2.040   1.347   1.152  0.00  0.00     0.168 A 
BRANCH  12  14
ATOM     14  C   UNL d   1      -4.363   0.636   1.747  0.00  0.00     0.156 C 
BRANCH  14  15
ATOM     15  N   UNL d   1      -5.780   0.796   1.455  0.00  0.00    -0.359 N 
ATOM     16  C   UNL d   1      -6.481  -0.057   0.547  0.00  0.00     0.213 C 
ATOM     17  C   UNL d   1      -7.914   0.204   0.253  0.00  0.00     0.117 C 
ATOM     18  O   UNL d   1      -5.900  -1.033   0.002  0.00  0.00    -0.274 OA
ATOM     19  HN  UNL d   1      -6.293   1.546   1.916  1.00  0.00     0.162 HD
ENDBRANCH  14  15
ENDBRANCH  12  14
ENDBRANCH   1   8
BRANCH   5  20
ATOM     20  N   UNL d   1       4.265  -0.410   0.006  0.00  0.00    -0.374 N 
ATOM     21  C   UNL d   1       5.139   0.299   0.944  0.00  0.00     0.149 C 
ATOM     22  C   UNL d   1       6.545   0.402   0.352  0.00  0.00     0.187 C 
ATOM     23  O   UNL d   1       7.009  -0.878   0.001  0.00  0.00    -0.388 OA
ATOM     24  C   UNL d   1       6.255  -1.282  -1.115  0.00  0.00     0.187 C 
ATOM     25  C   UNL d   1       4.816  -1.575  -0.690  0.00  0.00     0.149 C 
ENDBRANCH   5  20
TORSDOF 4
