REMARK  15 active torsions:
REMARK  status: ('A' for Active; 'I' for Inactive)
REMARK    1  A    between atoms: C_1  and  C_2 
REMARK    2  A    between atoms: C_1  and  N_21 
REMARK    3  A    between atoms: C_4  and  C_5 
REMARK    4  A    between atoms: C_4  and  N_21 
REMARK    5  A    between atoms: C_5  and  C_6 
REMARK    6  A    between atoms: C_5  and  O_19 
REMARK    7  A    between atoms: C_6  and  C_7 
REMARK    8  A    between atoms: C_6  and  O_17 
REMARK    9  A    between atoms: C_7  and  C_8 
REMARK   10  A    between atoms: C_7  and  O_15 
REMARK   11  A    between atoms: C_8  and  C_9 
REMARK   12  A    between atoms: C_8  and  O_13 
REMARK   13  A    between atoms: C_9  and  N_24 
REMARK   14  A    between atoms: C_10  and  C_11 
REMARK   15  A    between atoms: C_10  and  N_24 
ROOT
ATOM      1  C   UNL d   1      -0.217  -1.958  -0.761  0.00  0.00     0.179 C 
ENDROOT
BRANCH   1   2
ATOM      2  C   UNL d   1      -1.410  -2.638  -0.069  0.00  0.00     0.175 C 
BRANCH   2   3
ATOM      3  C   UNL d   1      -2.503  -1.637   0.294  0.00  0.00     0.266 C 
BRANCH   3   4
ATOM      4  N   UNL d   1      -2.999  -0.961  -0.896  0.00  0.00    -0.072 N 
ATOM      5  HN2 UNL d   1      -3.583  -1.561  -1.480  1.00  0.00     0.277 HD
ATOM      6  HN1 UNL d   1      -2.268  -0.777  -1.583  1.00  0.00     0.277 HD
BRANCH   4   7
ATOM      7  C   UNL d   1      -3.685   0.246  -0.460  0.00  0.00     0.247 C 
BRANCH   7   8
ATOM      8  C   UNL d   1      -2.697   1.392  -0.295  0.00  0.00     0.142 C 
ATOM      9 CL   UNL d   1      -2.015   1.862  -1.871  0.00  0.00    -0.129 Cl
ENDBRANCH   7   8
ENDBRANCH   4   7
ENDBRANCH   3   4
ENDBRANCH   2   3
BRANCH   2  10
ATOM     10  O   UNL d   1      -1.952  -3.635  -0.885  0.00  0.00    -0.391 OA
ATOM     11  HO  UNL d   1      -1.272  -4.258  -1.111  1.00  0.00     0.210 HD
ENDBRANCH   2  10
ENDBRANCH   1   2
BRANCH   1  12
ATOM     12  C   UNL d   1       0.688  -1.206   0.231  0.00  0.00     0.179 C 
BRANCH  12  13
ATOM     13  C   UNL d   1       1.788  -0.425  -0.504  0.00  0.00     0.175 C 
BRANCH  13  14
ATOM     14  C   UNL d   1       2.559   0.489   0.438  0.00  0.00     0.266 C 
BRANCH  14  15
ATOM     15  N   UNL d   1       1.865   1.757   0.577  0.00  0.00    -0.072 N 
ATOM     16  HN2 UNL d   1       1.715   2.234  -0.313  1.00  0.00     0.277 HD
ATOM     17  HN1 UNL d   1       0.883   1.653   0.833  1.00  0.00     0.277 HD
BRANCH  15  18
ATOM     18  C   UNL d   1       2.624   2.547   1.528  0.00  0.00     0.247 C 
BRANCH  18  19
ATOM     19  C   UNL d   1       1.938   3.881   1.736  0.00  0.00     0.142 C 
ATOM     20 CL   UNL d   1       2.867   4.847   2.904  0.00  0.00    -0.129 Cl
ENDBRANCH  18  19
ENDBRANCH  15  18
ENDBRANCH  14  15
ENDBRANCH  13  14
BRANCH  13  21
ATOM     21  O   UNL d   1       2.692  -1.310  -1.093  0.00  0.00    -0.391 OA
ATOM     22  HO  UNL d   1       3.371  -0.827  -1.548  1.00  0.00     0.210 HD
ENDBRANCH  13  21
ENDBRANCH  12  13
BRANCH  12  23
ATOM     23  O   UNL d   1      -0.074  -0.330   1.010  0.00  0.00    -0.390 OA
ATOM     24  HO  UNL d   1       0.484   0.134   1.622  1.00  0.00     0.210 HD
ENDBRANCH  12  23
ENDBRANCH   1  12
BRANCH   1  25
ATOM     25  O   UNL d   1       0.533  -2.921  -1.443  0.00  0.00    -0.390 OA
ATOM     26  HO  UNL d   1       1.270  -2.501  -1.871  1.00  0.00     0.210 HD
ENDBRANCH   1  25
TORSDOF 15
