REMARK  4 active torsions:
REMARK  status: ('A' for Active; 'I' for Inactive)
REMARK    1  A    between atoms: N_1  and  C_3 
REMARK    2  A    between atoms: N_1  and  C_14 
REMARK    3  A    between atoms: C_4  and  C_5 
REMARK    4  A    between atoms: C_5  and  C_6 
ROOT
ATOM      1  C   UNL d   1      -0.724  -0.919  -0.684  0.00  0.00     0.039 A 
ATOM      2  C   UNL d   1      -0.837  -0.834   0.725  0.00  0.00    -0.021 A 
ATOM      3  C   UNL d   1      -1.561  -1.810   1.421  0.00  0.00     0.016 A 
ATOM      4  C   UNL d   1      -2.176  -2.859   0.735  0.00  0.00    -0.061 A 
ATOM      5  C   UNL d   1      -2.939  -3.890   1.485  0.00  0.00     0.048 C 
ATOM      6  C   UNL d   1      -2.091  -2.928  -0.656  0.00  0.00     0.009 A 
ATOM      7  C   UNL d   1      -1.373  -1.959  -1.360  0.00  0.00     0.030 A 
ENDROOT
BRANCH   1   8
ATOM      8  N   UNL d   1      -0.010   0.048  -1.467  0.00  0.00    -0.352 N 
ATOM      9  HN  UNL d   1      -0.398   0.272  -2.383  1.00  0.00     0.166 HD
BRANCH   8  10
ATOM     10  C   UNL d   1       1.195   0.734  -1.093  0.00  0.00     0.093 A 
ATOM     11  C   UNL d   1       2.287   0.064  -0.494  0.00  0.00     0.063 A 
ATOM     12 CL   UNL d   1       2.298  -1.673  -0.226  0.00  0.00    -0.082 Cl
ATOM     13  C   UNL d   1       3.438   0.780  -0.155  0.00  0.00     0.026 A 
ATOM     14  C   UNL d   1       3.523   2.149  -0.415  0.00  0.00     0.005 A 
ATOM     15  C   UNL d   1       2.459   2.808  -1.033  0.00  0.00     0.045 A 
ATOM     16  C   UNL d   1       1.305   2.102  -1.383  0.00  0.00     0.144 A 
ATOM     17  F   UNL d   1       0.283   2.759  -1.984  0.00  0.00    -0.204 F 
ENDBRANCH   8  10
ENDBRANCH   1   8
BRANCH   2  18
ATOM     18  C   UNL d   1      -0.275   0.312   1.506  0.00  0.00     0.154 C 
BRANCH  18  19
ATOM     19  C   UNL d   1      -1.281   1.404   1.631  0.00  0.00     0.177 C 
ATOM     20  O   UNL d   1      -2.226   1.365   2.648  0.00  0.00    -0.648 OA
ATOM     21  O   UNL d   1      -1.296   2.347   0.798  0.00  0.00    -0.648 OA
ENDBRANCH  18  19
ENDBRANCH   2  18
TORSDOF 4
