REMARK  10 active torsions:
REMARK  status: ('A' for Active; 'I' for Inactive)
REMARK    1  A    between atoms: C_2  and  C_3 
REMARK    2  A    between atoms: C_3  and  C_4 
REMARK    3  A    between atoms: C_4  and  C_5 
REMARK    4  A    between atoms: C_5  and  C_6 
REMARK    5  A    between atoms: C_6  and  C_7 
REMARK    6  A    between atoms: C_7  and  C_8 
REMARK    7  A    between atoms: C_8  and  C_9 
REMARK    8  A    between atoms: C_9  and  C_10 
REMARK    9  A    between atoms: C_10  and  O_12 
REMARK   10  A    between atoms: C_13  and  O_12 
ROOT
ATOM      1  C   UNL d   1      -0.720   0.259   0.171  0.00  0.00     0.140 C 
ATOM      2  C   UNL d   1      -0.706  -0.672   1.364  0.00  0.00     0.034 C 
ATOM      3  C   UNL d   1       0.747  -0.747   1.768  0.00  0.00     0.008 C 
ATOM      4  C   UNL d   1       1.538  -0.624   0.476  0.00  0.00     0.001 C 
ATOM      5  C   UNL d   1       0.611   0.050  -0.555  0.00  0.00    -0.013 C 
ATOM      6  C   UNL d   1       1.129   1.418  -1.013  0.00  0.00     0.012 C 
ATOM      7  C   UNL d   1       2.579   1.370  -1.507  0.00  0.00     0.006 C 
ATOM      8  C   UNL d   1       3.506   0.492  -0.649  0.00  0.00    -0.002 C 
ATOM      9  C   UNL d   1       2.864   0.114   0.707  0.00  0.00    -0.005 C 
ATOM     10  C   UNL d   1       3.811  -0.755   1.550  0.00  0.00     0.010 C 
ATOM     11  C   UNL d   1       5.146  -0.048   1.787  0.00  0.00     0.035 C 
ATOM     12  C   UNL d   1       5.718   0.316   0.462  0.00  0.00    -0.072 C 
ATOM     13  C   UNL d   1       6.794  -0.334   0.009  0.00  0.00     0.053 C 
ATOM     14  C   UNL d   1       7.223  -0.198  -1.388  0.00  0.00     0.149 C 
ATOM     15  O   UNL d   1       8.315  -0.698  -1.763  0.00  0.00    -0.293 OA
ATOM     16  C   UNL d   1       6.316   0.453  -2.382  0.00  0.00     0.084 C 
ATOM     17  C   UNL d   1       5.566   1.608  -1.726  0.00  0.00     0.017 C 
ATOM     18  C   UNL d   1       4.859   1.183  -0.426  0.00  0.00     0.019 C 
ATOM     19  C   UNL d   1       0.470  -0.882  -1.756  0.00  0.00     0.018 C 
ENDROOT
BRANCH   1  20
ATOM     20  O   UNL d   1      -1.853   0.017  -0.660  0.00  0.00    -0.315 OA
BRANCH  20  21
ATOM     21  C   UNL d   1      -3.138   0.440  -0.314  0.00  0.00     0.259 C 
ATOM     22  O   UNL d   1      -3.344   1.079   0.753  0.00  0.00    -0.265 OA
BRANCH  21  23
ATOM     23  C   UNL d   1      -4.284   0.105  -1.200  0.00  0.00     0.111 C 
BRANCH  23  24
ATOM     24  C   UNL d   1      -4.756  -1.308  -0.912  0.00  0.00     0.010 C 
BRANCH  24  25
ATOM     25  C   UNL d   1      -6.014  -1.625  -1.707  0.00  0.00     0.000 C 
BRANCH  25  26
ATOM     26  C   UNL d   1      -7.222  -0.857  -1.181  0.00  0.00     0.000 C 
BRANCH  26  27
ATOM     27  C   UNL d   1      -7.792  -1.495   0.081  0.00  0.00     0.000 C 
BRANCH  27  28
ATOM     28  C   UNL d   1      -6.977  -1.132   1.314  0.00  0.00     0.000 C 
BRANCH  28  29
ATOM     29  C   UNL d   1      -7.179   0.330   1.679  0.00  0.00    -0.000 C 
BRANCH  29  30
ATOM     30  C   UNL d   1      -6.311   0.704   2.866  0.00  0.00    -0.005 C 
ATOM     31  C   UNL d   1      -6.897   0.145   4.149  0.00  0.00     0.005 C 
ENDBRANCH  29  30
ENDBRANCH  28  29
ENDBRANCH  27  28
ENDBRANCH  26  27
ENDBRANCH  25  26
ENDBRANCH  24  25
ENDBRANCH  23  24
ENDBRANCH  21  23
ENDBRANCH  20  21
ENDBRANCH   1  20
TORSDOF 10
