REMARK  5 active torsions:
REMARK  status: ('A' for Active; 'I' for Inactive)
REMARK    1  A    between atoms: N_2  and  C_4 
REMARK    2  A    between atoms: C_4  and  C_5 
REMARK    3  A    between atoms: C_5  and  C_6 
REMARK    4  A    between atoms: C_6  and  C_7 
REMARK    5  A    between atoms: C_7  and  C_18 
ROOT
ATOM      1  C   UNL d   1       0.485  -0.391  -0.986  0.00  0.00     0.116 A 
ATOM      2  O   UNL d   1       0.577  -0.675  -2.382  0.00  0.00    -0.366 OA
ATOM      3  C   UNL d   1      -0.465   0.013  -3.062  0.00  0.00     0.209 A 
ATOM      4  C   UNL d   1      -1.173   0.816  -2.060  0.00  0.00    -0.023 A 
ATOM      5  C   UNL d   1      -2.235   1.701  -2.248  0.00  0.00     0.032 A 
ATOM      6  C   UNL d   1      -2.740   2.376  -1.125  0.00  0.00     0.045 A 
ATOM      7  C   UNL d   1      -2.173   2.157   0.144  0.00  0.00     0.023 A 
ATOM      8  C   UNL d   1      -1.104   1.259   0.293  0.00  0.00     0.012 A 
ATOM      9  C   UNL d   1      -0.629   0.594  -0.845  0.00  0.00    -0.011 A 
ATOM     10  C   UNL d   1      -3.832   3.295  -1.273  0.00  0.00     0.099 C 
ATOM     11  N   UNL d   1      -4.713   4.036  -1.392  0.00  0.00    -0.191 NA
ENDROOT
BRANCH   1  12
ATOM     12  C   UNL d   1       1.822   0.228  -0.550  0.00  0.00     0.050 C 
BRANCH  12  13
ATOM     13  C   UNL d   1       1.901   0.520   0.942  0.00  0.00     0.034 C 
BRANCH  13  14
ATOM     14  C   UNL d   1       3.244   1.143   1.265  0.00  0.00     0.271 C 
BRANCH  14  15
ATOM     15  N   UNL d   1       3.323   1.436   2.686  0.00  0.00     0.080 N 
ATOM     16  C   UNL d   1       4.721   1.318   3.058  0.00  0.00     0.309 C 
ATOM     17  C   UNL d   1       2.967   2.834   2.853  0.00  0.00     0.309 C 
ENDBRANCH  14  15
ENDBRANCH  13  14
ENDBRANCH  12  13
ENDBRANCH   1  12
BRANCH   1  18
ATOM     18  C   UNL d   1       0.227  -1.692  -0.239  0.00  0.00    -0.019 A 
ATOM     19  C   UNL d   1      -0.530  -1.725   0.946  0.00  0.00     0.013 A 
ATOM     20  C   UNL d   1      -0.711  -2.922   1.643  0.00  0.00     0.043 A 
ATOM     21  C   UNL d   1      -0.128  -4.100   1.171  0.00  0.00     0.116 A 
ATOM     22  F   UNL d   1      -0.304  -5.261   1.846  0.00  0.00    -0.206 F 
ATOM     23  C   UNL d   1       0.643  -4.079   0.007  0.00  0.00     0.043 A 
ATOM     24  C   UNL d   1       0.825  -2.881  -0.690  0.00  0.00     0.013 A 
ENDBRANCH   1  18
TORSDOF 5
