REMARK  1 active torsions:
REMARK  status: ('A' for Active; 'I' for Inactive)
REMARK    1  A    between atoms: C_10  and  C_12 
ROOT
ATOM      1  C   UNL d   1      -1.293   3.434   0.355  0.00  0.00     0.310 C 
ATOM      2  C   UNL d   1      -2.101   1.242   0.293  0.00  0.00     0.313 C 
ATOM      3  C   UNL d   1      -1.779  -0.230   0.256  0.00  0.00     0.001 A 
ATOM      4  C   UNL d   1      -0.521  -0.681   0.709  0.00  0.00    -0.038 A 
ATOM      5  C   UNL d   1      -0.254  -2.055   0.759  0.00  0.00     0.008 A 
ATOM      6  C   UNL d   1      -1.227  -2.977   0.370  0.00  0.00     0.002 A 
ATOM      7  C   UNL d   1      -2.475  -2.532  -0.071  0.00  0.00     0.027 A 
ATOM      8  C   UNL d   1      -2.758  -1.164  -0.125  0.00  0.00     0.054 A 
ATOM      9  N   UNL d   1      -4.044  -0.735  -0.563  0.00  0.00    -0.102 NA
ATOM     10  C   UNL d   1       0.558   0.301   1.096  0.00  0.00     0.080 C 
ATOM     11  C   UNL d   1       0.000   1.718   1.274  0.00  0.00     0.286 C 
ATOM     12  N   UNL d   1      -0.891   2.053   0.166  0.00  0.00     0.089 N 
ENDROOT
BRANCH  10  13
ATOM     13  C   UNL d   1       1.706   0.286   0.129  0.00  0.00    -0.048 A 
ATOM     14  C   UNL d   1       2.994   0.017   0.607  0.00  0.00     0.008 A 
ATOM     15  C   UNL d   1       4.082   0.001  -0.271  0.00  0.00     0.001 A 
ATOM     16  C   UNL d   1       3.886   0.254  -1.632  0.00  0.00     0.000 A 
ATOM     17  C   UNL d   1       2.603   0.525  -2.115  0.00  0.00     0.001 A 
ATOM     18  C   UNL d   1       1.515   0.542  -1.238  0.00  0.00     0.008 A 
ENDBRANCH  10  13
TORSDOF 1
