REMARK  8 active torsions:
REMARK  status: ('A' for Active; 'I' for Inactive)
REMARK    1  A    between atoms: C_16  and  O_36 
REMARK    2  A    between atoms: C_19  and  C_20 
REMARK    3  A    between atoms: C_19  and  O_27 
REMARK    4  A    between atoms: C_20  and  C_22 
REMARK    5  A    between atoms: C_22  and  O_23 
REMARK    6  A    between atoms: O_23  and  C_24 
REMARK    7  A    between atoms: O_27  and  C_28 
REMARK    8  A    between atoms: C_28  and  C_30 
ROOT
ATOM      1  C   UNL d   1      -2.198  -1.912  -2.622  0.00  0.00     0.013 C 
ATOM      2  C   UNL d   1      -1.642  -1.965  -1.202  0.00  0.00     0.026 C 
ATOM      3  C   UNL d   1      -0.248  -2.560  -1.240  0.00  0.00     0.013 C 
ATOM      4  C   UNL d   1       0.693  -1.378  -1.388  0.00  0.00     0.005 C 
ATOM      5  C   UNL d   1       2.080  -1.583  -0.756  0.00  0.00     0.035 C 
ATOM      6  C   UNL d   1       2.021  -2.106   0.687  0.00  0.00     0.013 C 
ATOM      7  C   UNL d   1       3.420  -2.416   1.210  0.00  0.00     0.036 C 
ATOM      8  C   UNL d   1       4.322  -1.235   1.023  0.00  0.00    -0.061 C 
ATOM      9  C   UNL d   1       5.139  -0.884   2.019  0.00  0.00     0.058 C 
ATOM     10  C   UNL d   1       6.046   0.259   1.871  0.00  0.00     0.172 C 
ATOM     11  O   UNL d   1       6.847   0.555   2.795  0.00  0.00    -0.289 OA
ATOM     12  C   UNL d   1       5.987   1.076   0.655  0.00  0.00     0.052 C 
ATOM     13  C   UNL d   1       5.193   0.719  -0.355  0.00  0.00    -0.006 C 
ATOM     14  C   UNL d   1       4.366  -0.554  -0.344  0.00  0.00     0.036 C 
ATOM     15  C   UNL d   1       2.909  -0.278  -0.846  0.00  0.00     0.147 C 
ATOM     16  C   UNL d   1       2.176   0.898  -0.115  0.00  0.00     0.160 C 
ATOM     17  C   UNL d   1       0.672   0.688   0.118  0.00  0.00     0.048 C 
ATOM     18  C   UNL d   1      -0.056  -0.098  -0.989  0.00  0.00     0.002 C 
ATOM     19  C   UNL d   1      -1.491  -0.574  -0.560  0.00  0.00     0.144 C 
ATOM     20  C   UNL d   1      -0.111   0.777  -2.240  0.00  0.00     0.019 C 
ATOM     21  F   UNL d   1       2.983   0.082  -2.185  0.00  0.00    -0.238 F 
ATOM     22  C   UNL d   1       5.063  -1.517  -1.303  0.00  0.00     0.028 C 
ENDROOT
BRANCH  19  23
ATOM     23  C   UNL d   1      -1.654  -0.787   0.948  0.00  0.00     0.187 C 
ATOM     24  O   UNL d   1      -0.810  -1.404   1.579  0.00  0.00    -0.292 OA
BRANCH  23  25
ATOM     25  C   UNL d   1      -2.885  -0.339   1.670  0.00  0.00     0.260 C 
BRANCH  25  26
ATOM     26  O   UNL d   1      -3.978  -1.173   1.315  0.00  0.00    -0.314 OA
BRANCH  26  27
ATOM     27  C   UNL d   1      -5.272  -0.921   1.767  0.00  0.00     0.255 C 
ATOM     28  O   UNL d   1      -5.517   0.066   2.513  0.00  0.00    -0.266 OA
ATOM     29  C   UNL d   1      -6.378  -1.827   1.363  0.00  0.00     0.126 C 
ENDBRANCH  26  27
ENDBRANCH  25  26
ENDBRANCH  23  25
ENDBRANCH  19  23
BRANCH  19  30
ATOM     30  O   UNL d   1      -2.527   0.299  -1.051  0.00  0.00    -0.295 OA
BRANCH  30  31
ATOM     31  C   UNL d   1      -2.695   1.646  -0.695  0.00  0.00     0.318 C 
ATOM     32  O   UNL d   1      -1.906   2.207   0.112  0.00  0.00    -0.257 OA
BRANCH  31  33
ATOM     33  C   UNL d   1      -3.810   2.407  -1.262  0.00  0.00     0.149 A 
ATOM     34  O   UNL d   1      -4.048   3.665  -0.994  0.00  0.00    -0.317 OA
ATOM     35  C   UNL d   1      -5.114   4.046  -1.656  0.00  0.00     0.143 A 
ATOM     36  C   UNL d   1      -5.593   2.977  -2.394  0.00  0.00     0.027 A 
ATOM     37  C   UNL d   1      -4.748   1.910  -2.141  0.00  0.00     0.045 A 
ENDBRANCH  31  33
ENDBRANCH  30  31
ENDBRANCH  19  30
BRANCH  16  38
ATOM     38  O   UNL d   1       2.764   1.233   1.107  0.00  0.00    -0.392 OA
ATOM     39  HO  UNL d   1       2.319   1.946   1.550  1.00  0.00     0.210 HD
ENDBRANCH  16  38
TORSDOF 8
