REMARK  13 active torsions:
REMARK  status: ('A' for Active; 'I' for Inactive)
REMARK    1  A    between atoms: C_2  and  O_3 
REMARK    2  A    between atoms: O_3  and  C_4 
REMARK    3  A    between atoms: C_4  and  O_6 
REMARK    4  A    between atoms: O_6  and  C_7 
REMARK    5  A    between atoms: C_8  and  O_47 
REMARK    6  A    between atoms: C_10  and  C_15 
REMARK    7  A    between atoms: C_12  and  O_13 
REMARK    8  A    between atoms: C_15  and  O_17 
REMARK    9  A    between atoms: C_18  and  O_17 
REMARK   10  A    between atoms: C_28  and  O_45 
REMARK   11  A    between atoms: C_37  and  C_41 
REMARK   12  A    between atoms: C_38  and  O_39 
REMARK   13  A    between atoms: C_41  and  O_43 
ROOT
ATOM      1  C   UNL d   1       0.595   0.676  -1.397  0.00  0.00     0.162 C 
ATOM      2  C   UNL d   1      -0.112   1.255  -0.175  0.00  0.00     0.042 C 
ATOM      3  C   UNL d   1      -1.531   1.691  -0.546  0.00  0.00     0.021 C 
ATOM      4  C   UNL d   1      -2.345   1.970   0.720  0.00  0.00     0.278 C 
ATOM      5  C   UNL d   1      -4.059   1.304   2.178  0.00  0.00     0.278 C 
ATOM      6  C   UNL d   1      -5.139   0.264   2.511  0.00  0.00     0.072 C 
ATOM      7  C   UNL d   1      -6.013   0.085   1.315  0.00  0.00    -0.019 A 
ATOM      8  C   UNL d   1      -7.257  -0.473   1.194  0.00  0.00    -0.001 A 
ATOM      9  C   UNL d   1      -8.105  -1.041   2.138  0.00  0.00     0.017 A 
ATOM     10  C   UNL d   1      -9.348  -1.516   1.684  0.00  0.00     0.038 A 
ATOM     11  C   UNL d   1      -9.714  -1.411   0.318  0.00  0.00     0.070 A 
ATOM     12  C   UNL d   1      -8.825  -0.829  -0.604  0.00  0.00     0.067 A 
ATOM     13  C   UNL d   1      -7.597  -0.371  -0.132  0.00  0.00     0.046 A 
ATOM     14  N   UNL d   1      -6.626   0.218  -0.865  0.00  0.00    -0.357 N 
ATOM     15  HN  UNL d   1      -6.628   0.426  -1.864  1.00  0.00     0.166 HD
ATOM     16  C   UNL d   1      -5.649   0.468   0.041  0.00  0.00     0.050 A 
ATOM     17  C   UNL d   1      -4.365   1.198  -0.220  0.00  0.00     0.273 C 
ATOM     18  C   UNL d   1      -3.755   0.730  -1.546  0.00  0.00     0.048 C 
ATOM     19  C   UNL d   1      -2.219   0.739  -1.565  0.00  0.00     0.010 C 
ATOM     20  C   UNL d   1      -1.608  -0.674  -1.631  0.00  0.00     0.121 C 
ATOM     21  C   UNL d   1      -0.077  -0.628  -1.878  0.00  0.00     0.164 C 
ATOM     22  N   UNL d   1      -3.416   0.995   0.894  0.00  0.00     0.099 N 
ENDROOT
BRANCH   1  23
ATOM     23  O   UNL d   1       1.982   0.482  -1.142  0.00  0.00    -0.309 OA
BRANCH  23  24
ATOM     24  C   UNL d   1       2.895   1.542  -1.142  0.00  0.00     0.294 C 
ATOM     25  O   UNL d   1       2.500   2.721  -1.361  0.00  0.00    -0.259 OA
BRANCH  24  26
ATOM     26  C   UNL d   1       4.322   1.278  -0.903  0.00  0.00     0.045 A 
ATOM     27  C   UNL d   1       4.770  -0.029  -0.692  0.00  0.00     0.057 A 
ATOM     28  C   UNL d   1       6.130  -0.299  -0.473  0.00  0.00     0.106 A 
ATOM     29  C   UNL d   1       7.053   0.769  -0.447  0.00  0.00     0.148 A 
ATOM     30  C   UNL d   1       6.611   2.080  -0.685  0.00  0.00     0.106 A 
ATOM     31  C   UNL d   1       5.248   2.325  -0.906  0.00  0.00     0.057 A 
BRANCH  28  32
ATOM     32  O   UNL d   1       6.580  -1.615  -0.315  0.00  0.00    -0.353 OA
ATOM     33  C   UNL d   1       5.709  -2.738  -0.338  0.00  0.00     0.210 C 
ENDBRANCH  28  32
BRANCH  29  34
ATOM     34  O   UNL d   1       8.422   0.556  -0.232  0.00  0.00    -0.250 OA
BRANCH  34  35
ATOM     35  C   UNL d   1       8.948  -0.259   0.777  0.00  0.00     0.411 C 
ATOM     36  O   UNL d   1       8.217  -0.667   1.722  0.00  0.00    -0.229 OA
BRANCH  35  37
ATOM     37  O   UNL d   1      10.307  -0.582   0.743  0.00  0.00    -0.298 OA
BRANCH  37  38
ATOM     38  C   UNL d   1      10.933  -1.356   1.758  0.00  0.00     0.176 C 
ATOM     39  C   UNL d   1      11.185  -0.503   2.986  0.00  0.00     0.034 C 
ENDBRANCH  37  38
ENDBRANCH  35  37
ENDBRANCH  34  35
ENDBRANCH  29  34
BRANCH  30  40
ATOM     40  O   UNL d   1       7.542   3.124  -0.689  0.00  0.00    -0.353 OA
ATOM     41  C   UNL d   1       7.177   4.479  -0.913  0.00  0.00     0.210 C 
ENDBRANCH  30  40
ENDBRANCH  24  26
ENDBRANCH  23  24
ENDBRANCH   1  23
BRANCH  21  42
ATOM     42  O   UNL d   1       0.571  -1.764  -1.372  0.00  0.00    -0.387 OA
ATOM     43  C   UNL d   1       1.075  -2.420  -2.497  0.00  0.00     0.202 C 
ENDBRANCH  21  42
BRANCH  20  44
ATOM     44  C   UNL d   1      -2.010  -1.540  -0.469  0.00  0.00     0.265 C 
ATOM     45  O   UNL d   1      -2.816  -2.491  -0.663  0.00  0.00    -0.265 OA
BRANCH  44  46
ATOM     46  O   UNL d   1      -1.490  -1.297   0.803  0.00  0.00    -0.326 OA
ATOM     47  C   UNL d   1      -1.829  -2.108   1.916  0.00  0.00     0.213 C 
ENDBRANCH  44  46
ENDBRANCH  20  44
BRANCH  11  48
ATOM     48  O   UNL d   1     -10.948  -1.874  -0.144  0.00  0.00    -0.356 OA
ATOM     49  C   UNL d   1     -11.915  -2.463   0.715  0.00  0.00     0.210 C 
ENDBRANCH  11  48
TORSDOF 13
