REMARK  6 active torsions:
REMARK  status: ('A' for Active; 'I' for Inactive)
REMARK    1  A    between atoms: C_2  and  N_3 
REMARK       I    between atoms: N_6  and  C_7 
REMARK       I    between atoms: C_7  and  N_9 
REMARK    2  A    between atoms: CA_11  and  N_9 
REMARK    3  A    between atoms: CA_11  and  C_12 
REMARK    4  A    between atoms: CA_11  and  C_29 
REMARK       I    between atoms: C_12  and  N_14 
REMARK    5  A    between atoms: CA_16  and  N_14 
REMARK    6  A    between atoms: CA_22  and  C_26 
ROOT
ATOM      1  CA  UNL d   1      -0.466  -1.446  -1.194  0.00  0.00     0.211 C 
ENDROOT
BRANCH   1   2
ATOM      2  N   UNL d   1      -1.670  -0.719  -0.792  0.00  0.00    -0.325 N 
ATOM      3  C   UNL d   1      -2.415  -0.924   0.417  0.00  0.00     0.326 C 
ATOM      4  N   UNL d   1      -3.582  -0.128   0.699  0.00  0.00    -0.260 N 
ATOM      5  O   UNL d   1      -2.061  -1.820   1.230  0.00  0.00    -0.247 OA
ATOM      6  C   UNL d   1      -4.405  -0.471   1.863  0.00  0.00     0.157 C 
ATOM      7  C   UNL d   1      -3.924   1.052  -0.057  0.00  0.00     0.319 C 
ATOM      8  C   UNL d   1      -5.889  -0.311   1.534  0.00  0.00     0.146 C 
ATOM      9  N   UNL d   1      -6.161   1.043   1.060  0.00  0.00    -0.343 N 
ATOM     10  C   UNL d   1      -5.232   1.683   0.171  0.00  0.00     0.312 C 
ATOM     11  O   UNL d   1      -5.519   2.778  -0.385  0.00  0.00    -0.262 OA
ATOM     12  O   UNL d   1      -3.119   1.554  -0.887  0.00  0.00    -0.262 OA
ATOM     13  HN  UNL d   1      -2.012  -0.001  -1.430  1.00  0.00     0.165 HD
BRANCH   9  14
ATOM     14  C   UNL d   1      -7.320   1.749   1.587  0.00  0.00     0.122 C 
ATOM     15  C   UNL d   1      -8.385   1.887   0.514  0.00  0.00     0.026 C 
ENDBRANCH   9  14
ENDBRANCH   1   2
BRANCH   1  16
ATOM     16  C   UNL d   1       0.727  -1.106  -0.351  0.00  0.00     0.245 C 
ATOM     17  O   UNL d   1       0.711  -1.304   0.894  0.00  0.00    -0.271 OA
ATOM     18  N   UNL d   1       1.888  -0.562  -0.980  0.00  0.00    -0.344 N 
ATOM     19  HN  UNL d   1       1.884  -0.433  -1.992  1.00  0.00     0.163 HD
BRANCH  18  20
ATOM     20  CA  UNL d   1       3.076  -0.187  -0.229  0.00  0.00     0.199 A 
ATOM     21  C   UNL d   1       4.054   0.357  -1.121  0.00  0.00     0.160 A 
ATOM     22  S   UNL d   1       5.743  -0.240  -0.763  0.00  0.00    -0.135 SA
ATOM     23  N   UNL d   1       4.007   1.663  -0.539  0.00  0.00    -0.219 NA
ATOM     24  C   UNL d   1       6.313   1.384  -0.080  0.00  0.00     0.029 C 
ATOM     25  C   UNL d   1       6.638   1.180   1.393  0.00  0.00     0.029 C 
ATOM     26  C   UNL d   1       7.572   1.814  -0.805  0.00  0.00     0.029 C 
ATOM     27  CA  UNL d   1       5.206   2.428  -0.322  0.00  0.00     0.186 C 
ATOM     28  C   UNL d   1       2.910   1.187   0.332  0.00  0.00     0.227 A 
ATOM     29  O   UNL d   1       2.179   1.707   1.216  0.00  0.00    -0.277 OA
BRANCH  27  30
ATOM     30  C   UNL d   1       5.042   3.512   0.706  0.00  0.00     0.193 C 
ATOM     31  O   UNL d   1       4.567   3.225   1.980  0.00  0.00    -0.647 OA
ATOM     32  OXT UNL d   1       5.356   4.694   0.412  0.00  0.00    -0.647 OA
ENDBRANCH  27  30
ENDBRANCH  18  20
ENDBRANCH   1  16
BRANCH   1  33
ATOM     33  C   UNL d   1      -0.709  -2.916  -1.391  0.00  0.00    -0.026 A 
ATOM     34  C   UNL d   1      -0.528  -3.843  -0.352  0.00  0.00     0.010 A 
ATOM     35  C   UNL d   1      -0.787  -5.200  -0.565  0.00  0.00     0.001 A 
ATOM     36  C   UNL d   1      -1.233  -5.638  -1.814  0.00  0.00     0.000 A 
ATOM     37  C   UNL d   1      -1.423  -4.719  -2.850  0.00  0.00     0.001 A 
ATOM     38  C   UNL d   1      -1.163  -3.361  -2.637  0.00  0.00     0.010 A 
ENDBRANCH   1  33
TORSDOF 6
