REMARK  5 active torsions:
REMARK  status: ('A' for Active; 'I' for Inactive)
REMARK    1  A    between atoms: C_2  and  C_3 
REMARK    2  A    between atoms: C_2  and  C_12 
REMARK    3  A    between atoms: C_2  and  N_15 
REMARK    4  A    between atoms: C_3  and  C_4 
REMARK    5  A    between atoms: C_7  and  O_10 
ROOT
ATOM      1  C   UNL d   1      -2.329  -0.340   1.286  0.00  0.00     0.058 C 
ATOM      2  C   UNL d   1      -1.871  -1.016  -0.000  0.00  0.00     0.210 C 
ENDROOT
BRANCH   2   3
ATOM      3  C   UNL d   1      -1.251   0.015  -0.954  0.00  0.00     0.088 C 
BRANCH   3   4
ATOM      4  C   UNL d   1      -0.014   0.679  -0.429  0.00  0.00    -0.055 A 
ATOM      5  C   UNL d   1      -0.114   1.835   0.356  0.00  0.00     0.010 A 
ATOM      6  C   UNL d   1       1.041   2.451   0.846  0.00  0.00     0.037 A 
ATOM      7  C   UNL d   1       2.299   1.915   0.552  0.00  0.00     0.065 A 
ATOM      8  C   UNL d   1       2.401   0.763  -0.234  0.00  0.00     0.037 A 
ATOM      9  C   UNL d   1       1.246   0.146  -0.724  0.00  0.00     0.010 A 
BRANCH   7  10
ATOM     10  O   UNL d   1       3.445   2.526   1.039  0.00  0.00    -0.361 OA
ATOM     11  HO  UNL d   1       3.375   3.309   1.573  1.00  0.00     0.217 HD
ENDBRANCH   7  10
ENDBRANCH   3   4
ENDBRANCH   2   3
BRANCH   2  12
ATOM     12  C   UNL d   1      -0.898  -2.129   0.291  0.00  0.00     0.210 C 
ATOM     13  O   UNL d   1      -0.176  -2.103   1.325  0.00  0.00    -0.646 OA
ATOM     14  O   UNL d   1      -0.735  -3.165  -0.622  0.00  0.00    -0.646 OA
ENDBRANCH   2  12
BRANCH   2  15
ATOM     15  N   UNL d   1      -3.045  -1.577  -0.646  0.00  0.00    -0.060 N 
ATOM     16  HN3 UNL d   1      -3.572  -2.202  -0.036  1.00  0.00     0.275 HD
ATOM     17  HN2 UNL d   1      -3.780  -0.888  -0.801  1.00  0.00     0.275 HD
ATOM     18  HN1 UNL d   1      -2.738  -2.030  -1.507  1.00  0.00     0.275 HD
ENDBRANCH   2  15
TORSDOF 5
