REMARK  8 active torsions:
REMARK  status: ('A' for Active; 'I' for Inactive)
REMARK    1  A    between atoms: C_8  and  O_44 
REMARK    2  A    between atoms: C_9  and  O_42 
REMARK    3  A    between atoms: C_10  and  O_12 
REMARK    4  A    between atoms: C_13  and  O_12 
REMARK    5  A    between atoms: C_20  and  C_27 
REMARK    6  A    between atoms: C_29  and  O_37 
REMARK    7  A    between atoms: C_30  and  O_35 
REMARK    8  A    between atoms: C_31  and  O_33 
ROOT
ATOM      1  C   UNL d   1      -0.788   0.144   0.576  0.00  0.00     0.165 C 
ATOM      2  C   UNL d   1       0.288  -0.842   0.154  0.00  0.00    -0.019 A 
ATOM      3  C   UNL d   1      -0.033  -2.212   0.142  0.00  0.00     0.050 A 
ATOM      4  C   UNL d   1       0.937  -3.107  -0.296  0.00  0.00     0.105 A 
ATOM      5  C   UNL d   1       2.162  -2.700  -0.713  0.00  0.00     0.105 A 
ATOM      6  C   UNL d   1       2.534  -1.360  -0.725  0.00  0.00     0.048 A 
ATOM      7  C   UNL d   1       1.591  -0.408  -0.289  0.00  0.00    -0.037 A 
ATOM      8  C   UNL d   1       2.005   1.055  -0.248  0.00  0.00     0.066 C 
ATOM      9  C   UNL d   1       0.754   1.938  -0.180  0.00  0.00     0.107 C 
ATOM     10  C   UNL d   1      -0.126   1.462   0.952  0.00  0.00     0.058 C 
ATOM     11  C   UNL d   1      -0.984   2.666   1.331  0.00  0.00     0.187 C 
ATOM     12  O   UNL d   1      -0.153   3.773   0.996  0.00  0.00    -0.321 OA
ATOM     13  C   UNL d   1       0.868   3.373   0.149  0.00  0.00     0.264 C 
ATOM     14  O   UNL d   1       1.723   4.162  -0.330  0.00  0.00    -0.265 OA
ATOM     15  O   UNL d   1       2.907  -3.798  -1.092  0.00  0.00    -0.323 OA
ATOM     16  C   UNL d   1       2.101  -4.969  -0.902  0.00  0.00     0.352 A 
ATOM     17  O   UNL d   1       0.852  -4.481  -0.393  0.00  0.00    -0.323 OA
ENDROOT
BRANCH   1  18
ATOM     18  O   UNL d   1      -1.692   0.333  -0.477  0.00  0.00    -0.348 OA
BRANCH  18  19
ATOM     19  C   UNL d   1      -2.925  -0.119   0.009  0.00  0.00     0.292 C 
ATOM     20  C   UNL d   1      -4.060   0.883  -0.363  0.00  0.00     0.204 C 
ATOM     21  C   UNL d   1      -4.874   0.451  -1.593  0.00  0.00     0.183 C 
ATOM     22  C   UNL d   1      -5.184  -1.049  -1.566  0.00  0.00     0.187 C 
ATOM     23  C   UNL d   1      -4.509  -1.740  -0.393  0.00  0.00     0.180 C 
ATOM     24  O   UNL d   1      -6.567  -1.302  -1.547  0.00  0.00    -0.351 OA
ATOM     25  C   UNL d   1      -4.780  -3.218  -0.586  0.00  0.00     0.205 C 
ATOM     26  O   UNL d   1      -3.136  -1.454  -0.436  0.00  0.00    -0.348 OA
ATOM     27  O   UNL d   1      -6.174  -3.449  -0.617  0.00  0.00    -0.359 OA
ATOM     28  C   UNL d   1      -6.768  -2.703  -1.673  0.00  0.00     0.256 C 
ATOM     29  C   UNL d   1      -6.431  -3.245  -3.062  0.00  0.00     0.070 C 
BRANCH  20  30
ATOM     30  O   UNL d   1      -3.588   2.192  -0.497  0.00  0.00    -0.388 OA
ATOM     31  HO  UNL d   1      -3.085   2.459   0.264  1.00  0.00     0.210 HD
ENDBRANCH  20  30
BRANCH  21  32
ATOM     32  O   UNL d   1      -4.173   0.747  -2.764  0.00  0.00    -0.390 OA
ATOM     33  HO  UNL d   1      -3.981   1.678  -2.780  1.00  0.00     0.210 HD
ENDBRANCH  21  32
ENDBRANCH  18  19
ENDBRANCH   1  18
BRANCH   8  34
ATOM     34  C   UNL d   1       3.000   1.325   0.850  0.00  0.00    -0.043 A 
ATOM     35  C   UNL d   1       2.732   0.988   2.183  0.00  0.00     0.047 A 
ATOM     36  C   UNL d   1       3.669   1.256   3.191  0.00  0.00     0.104 A 
ATOM     37  C   UNL d   1       4.885   1.869   2.856  0.00  0.00     0.132 A 
ATOM     38  C   UNL d   1       5.163   2.212   1.524  0.00  0.00     0.104 A 
ATOM     39  C   UNL d   1       4.214   1.937   0.527  0.00  0.00     0.047 A 
BRANCH  36  40
ATOM     40  O   UNL d   1       3.413   0.925   4.526  0.00  0.00    -0.353 OA
ATOM     41  C   UNL d   1       2.204   0.305   4.946  0.00  0.00     0.210 C 
ENDBRANCH  36  40
BRANCH  37  42
ATOM     42  O   UNL d   1       5.820   2.139   3.849  0.00  0.00    -0.356 OA
ATOM     43  HO  UNL d   1       5.632   1.907   4.751  1.00  0.00     0.218 HD
ENDBRANCH  37  42
BRANCH  38  44
ATOM     44  O   UNL d   1       6.383   2.823   1.215  0.00  0.00    -0.353 OA
ATOM     45  C   UNL d   1       6.742   3.196  -0.108  0.00  0.00     0.210 C 
ENDBRANCH  38  44
ENDBRANCH   8  34
TORSDOF 8
