REMARK  2 active torsions:
REMARK  status: ('A' for Active; 'I' for Inactive)
REMARK    1  A    between atoms: O_2  and  C_3 
REMARK    2  A    between atoms: C_17  and  O_18 
ROOT
ATOM      1  C   UNL d   1       4.606  -0.349  -0.236  0.00  0.00     0.068 A 
ATOM      2  C   UNL d   1       3.631  -0.860  -1.098  0.00  0.00     0.044 A 
ATOM      3  C   UNL d   1       2.273  -0.761  -0.780  0.00  0.00    -0.049 A 
ATOM      4  C   UNL d   1       1.883  -0.162   0.440  0.00  0.00    -0.047 A 
ATOM      5  C   UNL d   1       2.860   0.349   1.301  0.00  0.00     0.011 A 
ATOM      6  C   UNL d   1       4.213   0.254   0.968  0.00  0.00     0.037 A 
ATOM      7  C   UNL d   1       0.431   0.015   0.795  0.00  0.00     0.023 C 
ATOM      8  C   UNL d   1       0.009   1.474   0.537  0.00  0.00     0.010 C 
ATOM      9  C   UNL d   1      -1.404   1.619  -0.041  0.00  0.00     0.014 C 
ATOM     10  C   UNL d   1      -2.417   0.648   0.597  0.00  0.00     0.003 C 
ATOM     11  C   UNL d   1      -2.523   0.974   2.088  0.00  0.00     0.020 C 
ATOM     12  C   UNL d   1      -1.947  -0.812   0.422  0.00  0.00     0.002 C 
ATOM     13  C   UNL d   1      -2.887  -1.490  -0.568  0.00  0.00     0.010 C 
ATOM     14  C   UNL d   1      -3.725  -0.383  -1.178  0.00  0.00     0.052 C 
ATOM     15  C   UNL d   1      -3.791   0.711  -0.131  0.00  0.00     0.128 C 
ATOM     16  C   UNL d   1      -4.945   0.429   0.748  0.00  0.00    -0.078 C 
ATOM     17  C   UNL d   1      -5.888   0.199   1.463  0.00  0.00     0.015 C 
ATOM     18  C   UNL d   1      -0.455  -1.006   0.063  0.00  0.00    -0.001 C 
ATOM     19  C   UNL d   1      -0.158  -0.952  -1.440  0.00  0.00     0.010 C 
ATOM     20  C   UNL d   1       1.274  -1.413  -1.698  0.00  0.00     0.039 C 
ENDROOT
BRANCH  15  21
ATOM     21  O   UNL d   1      -3.998   1.945  -0.754  0.00  0.00    -0.377 OA
ATOM     22  HO  UNL d   1      -4.038   2.631  -0.097  1.00  0.00     0.211 HD
ENDBRANCH  15  21
BRANCH   1  23
ATOM     23  O   UNL d   1       5.951  -0.459  -0.596  0.00  0.00    -0.356 OA
ATOM     24  C   UNL d   1       7.007   0.030   0.220  0.00  0.00     0.210 C 
ENDBRANCH   1  23
TORSDOF 2
