REMARK  10 active torsions:
REMARK  status: ('A' for Active; 'I' for Inactive)
REMARK    1  A    between atoms: C_2  and  C_3 
REMARK    2  A    between atoms: C_3  and  N_4 
REMARK    3  A    between atoms: C_9  and  C_10 
REMARK    4  A    between atoms: C_13  and  O_14 
REMARK    5  A    between atoms: O_14  and  C_15 
REMARK    6  A    between atoms: C_16  and  C_15 
REMARK    7  A    between atoms: C_16  and  O_17 
REMARK    8  A    between atoms: C_16  and  C_19 
REMARK    9  A    between atoms: C_19  and  O_20 
REMARK   10  A    between atoms: N_27  and  C_28 
ROOT
ATOM      1  N   UNL d   1      -3.531   1.949   0.037  0.00  0.00    -0.370 N 
ATOM      2  HN  UNL d   1      -4.537   1.800   0.107  1.00  0.00     0.161 HD
ATOM      3  C   UNL d   1      -2.747   0.914   0.065  0.00  0.00     0.155 A 
ATOM      4  S   UNL d   1      -0.951   1.030  -0.076  0.00  0.00    -0.048 SA
ATOM      5  C   UNL d   1      -0.881  -0.767   0.048  0.00  0.00     0.077 A 
ATOM      6  C   UNL d   1       0.229  -1.519   0.033  0.00  0.00     0.036 C 
ATOM      7  C   UNL d   1      -2.206  -1.359   0.191  0.00  0.00     0.271 A 
ATOM      8  O   UNL d   1      -2.401  -2.594   0.353  0.00  0.00    -0.266 OA
ATOM      9  N   UNL d   1      -3.266  -0.411   0.174  0.00  0.00    -0.257 N 
ENDROOT
BRANCH   6  10
ATOM     10  C   UNL d   1       1.632  -1.079  -0.098  0.00  0.00    -0.033 A 
ATOM     11  C   UNL d   1       2.627  -2.060  -0.075  0.00  0.00     0.014 A 
ATOM     12  C   UNL d   1       3.974  -1.708  -0.196  0.00  0.00     0.039 A 
ATOM     13  C   UNL d   1       4.346  -0.362  -0.341  0.00  0.00     0.090 A 
ATOM     14  C   UNL d   1       3.349   0.625  -0.364  0.00  0.00     0.068 A 
ATOM     15 CL   UNL d   1       3.764   2.320  -0.542  0.00  0.00    -0.081 Cl
ATOM     16  C   UNL d   1       2.004   0.265  -0.243  0.00  0.00     0.038 A 
BRANCH  13  17
ATOM     17  O   UNL d   1       5.688   0.011  -0.463  0.00  0.00    -0.347 OA
BRANCH  17  18
ATOM     18  C   UNL d   1       6.755  -0.929  -0.437  0.00  0.00     0.209 C 
BRANCH  18  19
ATOM     19  C   UNL d   1       8.087  -0.212  -0.571  0.00  0.00     0.166 C 
BRANCH  19  20
ATOM     20  O   UNL d   1       9.081  -1.147  -0.855  0.00  0.00    -0.391 OA
ATOM     21  HO  UNL d   1       9.914  -0.699  -0.939  1.00  0.00     0.210 HD
ENDBRANCH  19  20
BRANCH  19  22
ATOM     22  C   UNL d   1       8.440   0.512   0.718  0.00  0.00     0.198 C 
BRANCH  22  23
ATOM     23  O   UNL d   1       7.668   1.667   0.848  0.00  0.00    -0.398 OA
ATOM     24  HO  UNL d   1       7.888   2.120   1.654  1.00  0.00     0.209 HD
ENDBRANCH  22  23
ENDBRANCH  19  22
ENDBRANCH  18  19
ENDBRANCH  17  18
ENDBRANCH  13  17
ENDBRANCH   6  10
BRANCH   9  25
ATOM     25  C   UNL d   1      -4.649  -0.733   0.396  0.00  0.00     0.050 A 
ATOM     26  C   UNL d   1      -5.327  -0.149   1.475  0.00  0.00     0.031 A 
ATOM     27  C   UNL d   1      -6.670  -0.449   1.716  0.00  0.00     0.002 A 
ATOM     28  C   UNL d   1      -7.349  -1.334   0.876  0.00  0.00     0.001 A 
ATOM     29  C   UNL d   1      -6.687  -1.914  -0.208  0.00  0.00     0.009 A 
ATOM     30  C   UNL d   1      -5.342  -1.620  -0.456  0.00  0.00    -0.035 A 
ATOM     31  C   UNL d   1      -4.692  -2.221  -1.655  0.00  0.00     0.050 C 
ENDBRANCH   9  25
BRANCH   1  32
ATOM     32  C   UNL d   1      -3.039   3.311  -0.091  0.00  0.00     0.121 C 
BRANCH  32  33
ATOM     33  C   UNL d   1      -4.209   4.272  -0.087  0.00  0.00     0.015 C 
ATOM     34  C   UNL d   1      -3.697   5.690  -0.220  0.00  0.00     0.006 C 
ENDBRANCH  32  33
ENDBRANCH   1  32
TORSDOF 10
