REMARK  Name = fda_7150
REMARK  7 active torsions:
REMARK  status: ('A' for Active; 'I' for Inactive)
REMARK    1  A    between atoms: C_3  and  C_4
REMARK    2  A    between atoms: C_6  and  C_7
REMARK    3  A    between atoms: C_7  and  S_8
REMARK    4  A    between atoms: S_8  and  S_9
REMARK    5  A    between atoms: S_9  and  C_10
REMARK    6  A    between atoms: C_10  and  C_11
REMARK    7  A    between atoms: C_18  and  C_19
REMARK                            x       y       z     vdW  Elec       q    Type
REMARK                         _______ _______ _______ _____ _____    ______ ____
ROOT
ATOM      1  S   UNL A   1      -0.049   1.217  -0.026  0.00  0.00    -0.077 S 
ENDROOT
BRANCH   1   2
ATOM      2  C   UNL A   1       1.406   0.788   0.982  0.00  0.00    +0.096 C 
BRANCH   2   6
ATOM      3  O   UNL A   1       5.439  -1.026  -1.270  0.00  0.00    -0.286 OA
ATOM      4  C   UNL A   1       4.640   0.053  -0.900  0.00  0.00    +0.207 A 
ATOM      5  C   UNL A   1       3.458  -0.155  -0.173  0.00  0.00    +0.049 A 
ATOM      6  C   UNL A   1       2.670   0.951   0.196  0.00  0.00    +0.010 A 
ATOM      7  C   UNL A   1       3.086   2.234  -0.170  0.00  0.00    +0.095 A 
ATOM      8  N   UNL A   1       4.231   2.409  -0.879  0.00  0.00    -0.245 NA
ATOM      9  C   UNL A   1       5.010   1.359  -1.251  0.00  0.00    +0.098 A 
ATOM     10  C   UNL A   1       6.256   1.616  -2.026  0.00  0.00    +0.056 C 
BRANCH   5  11
ATOM     11  C   UNL A   1       3.076  -1.543   0.240  0.00  0.00    +0.212 C 
ATOM     12  O   UNL A   1       3.618  -1.828   1.493  0.00  0.00    -0.215 OA
ENDBRANCH   5  11
ENDBRANCH   2   6
ENDBRANCH   1   2
BRANCH   1  13
ATOM     13  S   UNL A   1      -0.127  -0.701  -0.956  0.00  0.00    -0.077 S 
BRANCH  13  14
ATOM     14  C   UNL A   1      -1.196  -1.404   0.340  0.00  0.00    +0.096 C 
BRANCH  14  15
ATOM     15  C   UNL A   1      -2.632  -1.060   0.095  0.00  0.00    +0.010 A 
ATOM     16  C   UNL A   1      -3.293  -1.625  -0.999  0.00  0.00    +0.095 A 
ATOM     17  N   UNL A   1      -4.598  -1.333  -1.240  0.00  0.00    -0.245 NA
ATOM     18  C   UNL A   1      -5.304  -0.496  -0.435  0.00  0.00    +0.098 A 
ATOM     19  C   UNL A   1      -6.733  -0.217  -0.751  0.00  0.00    +0.056 C 
ATOM     20  C   UNL A   1      -4.688   0.089   0.680  0.00  0.00    +0.207 A 
ATOM     21  O   UNL A   1      -5.410   0.939   1.514  0.00  0.00    -0.286 OA
ATOM     22  C   UNL A   1      -3.339  -0.192   0.948  0.00  0.00    +0.049 A 
BRANCH  22  23
ATOM     23  C   UNL A   1      -2.685   0.396   2.159  0.00  0.00    +0.212 C 
ATOM     24  O   UNL A   1      -2.836  -0.468   3.243  0.00  0.00    -0.215 OA
ENDBRANCH  22  23
ENDBRANCH  14  15
ENDBRANCH  13  14
ENDBRANCH   1  13
TORSDOF 7
