REMARK  1 active torsions:
REMARK  status: ('A' for Active; 'I' for Inactive)
REMARK    1  A    between atoms: C_2  and  C_10 
ROOT
ATOM      1  C   UNL d   1       0.557  -1.290  -1.945  0.00  0.00     0.031 C 
ATOM      2  C   UNL d   1       0.366  -0.316  -0.788  0.00  0.00     0.073 A 
ATOM      3  C   UNL d   1       0.936   1.058  -1.216  0.00  0.00     0.127 A 
ATOM      4  C   UNL d   1       2.057   1.298  -0.260  0.00  0.00     0.227 A 
ATOM      5  O   UNL d   1       2.782   2.327  -0.273  0.00  0.00    -0.273 OA
ATOM      6  N   UNL d   1       2.223   0.247   0.669  0.00  0.00    -0.292 N 
ATOM      7  C   UNL d   1       1.235  -0.717   0.367  0.00  0.00     0.239 A 
ATOM      8  O   UNL d   1       1.113  -1.796   1.008  0.00  0.00    -0.272 OA
ATOM      9  C   UNL d   1       3.223   0.167   1.720  0.00  0.00     0.162 C 
ENDROOT
BRANCH   2  10
ATOM     10  C   UNL d   1      -1.086  -0.224  -0.356  0.00  0.00    -0.040 A 
ATOM     11  C   UNL d   1      -1.599   0.966   0.192  0.00  0.00     0.008 A 
ATOM     12  C   UNL d   1      -2.918   1.030   0.648  0.00  0.00     0.001 A 
ATOM     13  C   UNL d   1      -3.738  -0.099   0.576  0.00  0.00     0.000 A 
ATOM     14  C   UNL d   1      -3.236  -1.294   0.056  0.00  0.00     0.001 A 
ATOM     15  C   UNL d   1      -1.916  -1.358  -0.399  0.00  0.00     0.008 A 
ENDBRANCH   2  10
TORSDOF 1
