REMARK  6 active torsions:
REMARK  status: ('A' for Active; 'I' for Inactive)
REMARK    1  A    between atoms: C_13  and  N_12 
REMARK    2  A    between atoms: C_14  and  O_24 
REMARK    3  A    between atoms: C_15  and  O_22 
REMARK    4  A    between atoms: C_16  and  C_18 
REMARK    5  A    between atoms: C_18  and  O_19 
REMARK    6  A    between atoms: O_19  and  P_20 
ROOT
ATOM      1  C   UNL d   1      -0.197  -1.106  -0.007  0.00  0.00     0.262 C 
ATOM      2  C   UNL d   1      -0.157  -1.974   1.239  0.00  0.00     0.198 C 
ATOM      3  C   UNL d   1       1.297  -2.285   1.426  0.00  0.00     0.182 C 
ATOM      4  C   UNL d   1       1.880  -1.923   0.072  0.00  0.00     0.180 C 
ATOM      5  O   UNL d   1       1.113  -0.882  -0.469  0.00  0.00    -0.353 OA
ENDROOT
BRANCH   1   6
ATOM      6  N   UNL d   1      -0.848   0.164   0.285  0.00  0.00    -0.297 N 
ATOM      7  C   UNL d   1      -0.348   1.217   0.984  0.00  0.00     0.188 A 
ATOM      8  N   UNL d   1      -1.251   2.230   1.117  0.00  0.00    -0.346 N 
ATOM      9  C   UNL d   1      -2.338   1.758   0.479  0.00  0.00     0.119 A 
ATOM     10  HN  UNL d   1      -1.132   3.128   1.587  1.00  0.00     0.167 HD
ATOM     11  C   UNL d   1      -2.099   0.524  -0.013  0.00  0.00     0.144 A 
ATOM     12  C   UNL d   1      -3.582   2.345   0.296  0.00  0.00     0.150 A 
ATOM     13  N   UNL d   1      -3.031  -0.191  -0.688  0.00  0.00    -0.302 N 
ATOM     14  C   UNL d   1      -4.261   0.379  -0.875  0.00  0.00     0.268 A 
ATOM     15  HN  UNL d   1      -2.823  -1.123  -1.045  1.00  0.00     0.171 HD
ATOM     16  N   UNL d   1      -4.528   1.634  -0.386  0.00  0.00    -0.305 N 
ATOM     17  F   UNL d   1      -5.222  -0.299  -1.546  0.00  0.00    -0.165 F 
ATOM     18  HN  UNL d   1      -5.450   2.043  -0.535  1.00  0.00     0.171 HD
ATOM     19  N   UNL d   1      -3.873   3.643   0.802  0.00  0.00    -0.080 NA
ENDBRANCH   1   6
BRANCH   2  20
ATOM     20  O   UNL d   1      -0.860  -3.155   1.002  0.00  0.00    -0.388 OA
ATOM     21  HO  UNL d   1      -0.835  -3.698   1.782  1.00  0.00     0.210 HD
ENDBRANCH   2  20
BRANCH   4  22
ATOM     22  C   UNL d   1       3.351  -1.535   0.141  0.00  0.00     0.217 C 
BRANCH  22  23
ATOM     23  O   UNL d   1       3.845  -1.311  -1.146  0.00  0.00    -0.280 OA
BRANCH  23  24
ATOM     24  P   UNL d   1       4.603   0.205  -1.083  0.00  0.00     0.422 P 
ATOM     25  O   UNL d   1       3.579   1.283  -0.806  0.00  0.00    -0.617 OA
ATOM     26  O   UNL d   1       5.780   0.217   0.133  0.00  0.00    -0.617 OA
ATOM     27  O   UNL d   1       5.343   0.514  -2.572  0.00  0.00    -0.617 OA
ENDBRANCH  23  24
ENDBRANCH  22  23
ENDBRANCH   4  22
BRANCH   3  28
ATOM     28  O   UNL d   1       1.804  -1.453   2.429  0.00  0.00    -0.390 OA
ATOM     29  HO  UNL d   1       2.725  -1.650   2.547  1.00  0.00     0.210 HD
ENDBRANCH   3  28
TORSDOF 6
