REMARK  1 active torsions:
REMARK  status: ('A' for Active; 'I' for Inactive)
REMARK    1  A    between atoms: C_19  and  O_22 
ROOT
ATOM      1  C   UNL d   1      -2.204   1.754  -1.466  0.00  0.00     0.020 C 
ATOM      2  C   UNL d   1      -2.018   0.744  -0.342  0.00  0.00    -0.016 C 
ATOM      3  C   UNL d   1      -2.762   1.271   0.904  0.00  0.00     0.022 C 
ATOM      4  C   UNL d   1      -4.280   1.178   0.765  0.00  0.00     0.084 C 
ATOM      5  C   UNL d   1      -4.677  -0.209   0.375  0.00  0.00     0.149 C 
ATOM      6  O   UNL d   1      -5.795  -0.664   0.727  0.00  0.00    -0.293 OA
ATOM      7  C   UNL d   1      -3.797  -1.012  -0.483  0.00  0.00     0.053 C 
ATOM      8  C   UNL d   1      -2.566  -0.600  -0.800  0.00  0.00    -0.068 C 
ATOM      9  C   UNL d   1      -1.790  -1.395  -1.799  0.00  0.00     0.035 C 
ATOM     10  C   UNL d   1      -0.345  -1.534  -1.350  0.00  0.00     0.010 C 
ATOM     11  C   UNL d   1       0.302  -0.170  -1.110  0.00  0.00    -0.004 C 
ATOM     12  C   UNL d   1      -0.501   0.637  -0.050  0.00  0.00     0.002 C 
ATOM     13  C   UNL d   1      -0.121   0.221   1.389  0.00  0.00     0.007 C 
ATOM     14  C   UNL d   1       1.371   0.496   1.692  0.00  0.00     0.014 C 
ATOM     15  C   UNL d   1       2.251   0.556   0.425  0.00  0.00     0.003 C 
ATOM     16  C   UNL d   1       1.725  -0.429  -0.602  0.00  0.00     0.002 C 
ATOM     17  C   UNL d   1       2.828  -0.615  -1.619  0.00  0.00     0.010 C 
ATOM     18  C   UNL d   1       4.114  -0.407  -0.813  0.00  0.00     0.052 C 
ATOM     19  C   UNL d   1       3.709   0.082   0.585  0.00  0.00     0.128 C 
ATOM     20  C   UNL d   1       3.841  -1.044   1.529  0.00  0.00    -0.078 C 
ATOM     21  C   UNL d   1       3.948  -1.964   2.301  0.00  0.00     0.015 C 
ATOM     22  C   UNL d   1       2.214   1.989  -0.128  0.00  0.00     0.020 C 
ENDROOT
BRANCH  19  23
ATOM     23  O   UNL d   1       4.554   1.117   0.995  0.00  0.00    -0.377 OA
ATOM     24  HO  UNL d   1       5.452   0.825   1.093  1.00  0.00     0.211 HD
ENDBRANCH  19  23
TORSDOF 1
