REMARK  4 active torsions:
REMARK  status: ('A' for Active; 'I' for Inactive)
REMARK    1  A    between atoms: C_7  and  O_46 
REMARK    2  A    between atoms: C_24  and  O_28 
REMARK    3  A    between atoms: C_25  and  O_26 
REMARK    4  A    between atoms: C_38  and  O_42 
ROOT
ATOM      1  C   UNL d   1       5.462  -3.840  -1.239  0.00  0.00     0.272 C 
ATOM      2  N   UNL d   1       5.223  -2.724  -0.337  0.00  0.00    -0.066 N 
ATOM      3  C   UNL d   1       5.354  -3.228   1.043  0.00  0.00     0.242 C 
ATOM      4  C   UNL d   1       4.802  -2.289   2.150  0.00  0.00     0.067 C 
ATOM      5  C   UNL d   1       4.107  -1.060   1.649  0.00  0.00    -0.045 A 
ATOM      6  C   UNL d   1       3.938   0.021   2.516  0.00  0.00     0.047 A 
ATOM      7  C   UNL d   1       3.366   1.217   2.058  0.00  0.00     0.102 A 
ATOM      8  C   UNL d   1       2.950   1.322   0.719  0.00  0.00     0.110 A 
ATOM      9  C   UNL d   1       3.081   0.220  -0.143  0.00  0.00     0.050 A 
ATOM     10  C   UNL d   1       3.655  -0.970   0.324  0.00  0.00    -0.018 A 
ATOM     11  C   UNL d   1       3.891  -2.127  -0.607  0.00  0.00     0.227 C 
ATOM     12  C   UNL d   1       2.766  -3.180  -0.465  0.00  0.00     0.077 C 
ATOM     13  C   UNL d   1       1.405  -2.641  -0.744  0.00  0.00    -0.056 A 
ATOM     14  C   UNL d   1       0.493  -2.529   0.307  0.00  0.00     0.010 A 
ATOM     15  C   UNL d   1      -0.807  -2.083   0.059  0.00  0.00     0.038 A 
ATOM     16  C   UNL d   1      -1.208  -1.748  -1.246  0.00  0.00     0.076 A 
ATOM     17  C   UNL d   1      -0.287  -1.855  -2.296  0.00  0.00     0.038 A 
ATOM     18  C   UNL d   1       1.016  -2.304  -2.048  0.00  0.00     0.010 A 
ATOM     19  O   UNL d   1      -2.510  -1.306  -1.520  0.00  0.00    -0.307 OA
ATOM     20  C   UNL d   1      -3.458  -1.115  -0.510  0.00  0.00     0.124 A 
ATOM     21  C   UNL d   1      -3.525   0.124   0.184  0.00  0.00     0.038 A 
ATOM     22  C   UNL d   1      -4.324   0.201   1.330  0.00  0.00    -0.039 A 
ATOM     23  C   UNL d   1      -5.115  -0.875   1.734  0.00  0.00     0.048 A 
ATOM     24  C   UNL d   1      -5.122  -2.066   1.003  0.00  0.00     0.104 A 
ATOM     25  C   UNL d   1      -4.303  -2.193  -0.128  0.00  0.00     0.136 A 
ATOM     26  C   UNL d   1      -4.324   1.456   2.126  0.00  0.00     0.068 C 
ATOM     27  C   UNL d   1      -4.440   2.619   1.151  0.00  0.00     0.247 C 
ATOM     28  N   UNL d   1      -3.346   2.670   0.164  0.00  0.00    -0.047 N 
ATOM     29  C   UNL d   1      -2.687   1.362  -0.155  0.00  0.00     0.131 C 
ATOM     30  C   UNL d   1      -1.971   1.327  -1.524  0.00  0.00     0.104 C 
ATOM     31  C   UNL d   1      -0.739   2.167  -1.546  0.00  0.00    -0.050 A 
ATOM     32  C   UNL d   1      -0.688   3.272  -2.407  0.00  0.00     0.010 A 
ATOM     33  C   UNL d   1       0.433   4.104  -2.412  0.00  0.00     0.040 A 
ATOM     34  C   UNL d   1       1.510   3.845  -1.549  0.00  0.00     0.102 A 
ATOM     35  C   UNL d   1       1.461   2.735  -0.687  0.00  0.00     0.110 A 
ATOM     36  C   UNL d   1       0.341   1.887  -0.697  0.00  0.00     0.047 A 
ATOM     37  O   UNL d   1       2.486   2.556   0.251  0.00  0.00    -0.305 OA
ATOM     38  C   UNL d   1      -3.919   3.299  -1.028  0.00  0.00     0.278 C 
ATOM     39  C   UNL d   1      -2.339   3.580   0.703  0.00  0.00     0.278 C 
ATOM     40  C   UNL d   1       6.287  -1.758  -0.602  0.00  0.00     0.272 C 
ENDROOT
BRANCH   7  41
ATOM     41  O   UNL d   1       3.210   2.315   2.912  0.00  0.00    -0.353 OA
ATOM     42  C   UNL d   1       3.492   2.251   4.319  0.00  0.00     0.210 C 
ENDBRANCH   7  41
BRANCH  34  43
ATOM     43  O   UNL d   1       2.632   4.680  -1.523  0.00  0.00    -0.353 OA
ATOM     44  C   UNL d   1       2.692   5.920  -2.225  0.00  0.00     0.210 C 
ENDBRANCH  34  43
BRANCH  25  45
ATOM     45  O   UNL d   1      -4.337  -3.417  -0.816  0.00  0.00    -0.351 OA
ATOM     46  C   UNL d   1      -3.882  -3.600  -2.153  0.00  0.00     0.210 C 
ENDBRANCH  25  45
BRANCH  24  47
ATOM     47  O   UNL d   1      -5.931  -3.143   1.387  0.00  0.00    -0.353 OA
ATOM     48  C   UNL d   1      -6.790  -3.099   2.518  0.00  0.00     0.210 C 
ENDBRANCH  24  47
TORSDOF 4
