REMARK  2 active torsions:
REMARK  status: ('A' for Active; 'I' for Inactive)
REMARK    1  A    between atoms: C_4  and  O_5 
REMARK    2  A    between atoms: C_4  and  C_7 
ROOT
ATOM      1  C   UNL d   1       1.271   0.449   0.933  0.00  0.00     0.002 C 
ATOM      2  C   UNL d   1       1.949   1.512   1.771  0.00  0.00     0.009 C 
ATOM      3  C   UNL d   1       3.431   1.133   1.718  0.00  0.00     0.047 C 
ATOM      4  C   UNL d   1       3.576   0.001   0.683  0.00  0.00     0.125 C 
ATOM      5  C   UNL d   1       2.274   0.081  -0.140  0.00  0.00    -0.002 C 
ATOM      6  C   UNL d   1       2.360   1.179  -1.217  0.00  0.00     0.019 C 
ATOM      7  C   UNL d   1       1.817  -1.234  -0.778  0.00  0.00     0.013 C 
ATOM      8  C   UNL d   1       0.411  -1.074  -1.379  0.00  0.00     0.007 C 
ATOM      9  C   UNL d   1      -0.614  -0.539  -0.350  0.00  0.00     0.002 C 
ATOM     10  C   UNL d   1      -0.119   0.735   0.371  0.00  0.00    -0.004 C 
ATOM     11  C   UNL d   1      -1.081   1.060   1.505  0.00  0.00     0.014 C 
ATOM     12  C   UNL d   1      -2.468   1.371   0.960  0.00  0.00     0.012 C 
ATOM     13  C   UNL d   1      -3.386   1.690   2.133  0.00  0.00     0.015 C 
ATOM     14  C   UNL d   1      -2.972   0.239   0.083  0.00  0.00    -0.064 C 
ATOM     15  C   UNL d   1      -4.279  -0.075   0.080  0.00  0.00     0.054 C 
ATOM     16  C   UNL d   1      -4.839  -1.077  -0.836  0.00  0.00     0.149 C 
ATOM     17  O   UNL d   1      -6.060  -1.370  -0.772  0.00  0.00    -0.293 OA
ATOM     18  C   UNL d   1      -3.979  -1.704  -1.884  0.00  0.00     0.084 C 
ATOM     19  C   UNL d   1      -2.525  -1.740  -1.419  0.00  0.00     0.022 C 
ATOM     20  C   UNL d   1      -2.025  -0.358  -0.958  0.00  0.00    -0.016 C 
ATOM     21  C   UNL d   1      -1.962   0.586  -2.159  0.00  0.00     0.020 C 
ENDROOT
BRANCH   4  22
ATOM     22  O   UNL d   1       3.633  -1.212   1.381  0.00  0.00    -0.381 OA
ATOM     23  HO  UNL d   1       3.722  -1.909   0.742  1.00  0.00     0.211 HD
ENDBRANCH   4  22
BRANCH   4  24
ATOM     24  C   UNL d   1       4.834   0.142  -0.151  0.00  0.00     0.158 C 
ATOM     25  C   UNL d   1       5.241  -0.951  -1.084  0.00  0.00     0.094 C 
ATOM     26  O   UNL d   1       5.513   1.156  -0.097  0.00  0.00    -0.295 OA
ENDBRANCH   4  24
TORSDOF 2
