REMARK  Name = fda_6687
REMARK  9 active torsions:
REMARK  status: ('A' for Active; 'I' for Inactive)
REMARK    1  A    between atoms: C_2  and  C_3
REMARK    2  A    between atoms: C_3  and  C_4
REMARK    3  A    between atoms: C_7  and  C_10
REMARK    4  A    between atoms: C_13  and  O_14
REMARK    5  A    between atoms: O_14  and  C_15
REMARK    6  A    between atoms: C_15  and  C_16
REMARK    7  A    between atoms: C_16  and  N_17
REMARK    8  A    between atoms: N_25  and  C_26
REMARK    9  A    between atoms: C_26  and  C_27
REMARK                            x       y       z     vdW  Elec       q    Type
REMARK                         _______ _______ _______ _____ _____    ______ ____
ROOT
ATOM      1  C   UNL A   1       3.679  -2.395   1.070  0.00  0.00    +0.068 A 
ATOM      2  C   UNL A   1       2.978  -2.575  -0.124  0.00  0.00    +0.015 A 
ATOM      3  C   UNL A   1       1.677  -2.081  -0.232  0.00  0.00    +0.003 A 
ATOM      4  C   UNL A   1       1.083  -1.406   0.845  0.00  0.00    +0.019 A 
ATOM      5  C   UNL A   1       1.831  -1.245   2.021  0.00  0.00    +0.098 A 
ATOM      6  N   UNL A   1       3.098  -1.733   2.106  0.00  0.00    -0.248 NA
ENDROOT
BRANCH   4   7
ATOM      7  C   UNL A   1      -0.296  -0.873   0.741  0.00  0.00    +0.002 A 
ATOM      8  C   UNL A   1      -0.884  -0.197   1.821  0.00  0.00    +0.003 A 
ATOM      9  C   UNL A   1      -2.184   0.307   1.724  0.00  0.00    +0.037 A 
ATOM     10  C   UNL A   1      -2.917   0.144   0.546  0.00  0.00    +0.139 A 
ATOM     11  C   UNL A   1      -2.337  -0.531  -0.539  0.00  0.00    +0.037 A 
ATOM     12  C   UNL A   1      -1.037  -1.035  -0.441  0.00  0.00    +0.003 A 
BRANCH  10  13
ATOM     13  O   UNL A   1      -4.215   0.659   0.479  0.00  0.00    -0.474 OA
BRANCH  13  14
ATOM     14  C   UNL A   1      -5.029   0.538  -0.678  0.00  0.00    +0.223 C 
BRANCH  14  15
ATOM     15  C   UNL A   1      -6.371   1.196  -0.421  0.00  0.00    +0.120 C 
BRANCH  15  16
ATOM     16  N   UNL A   1      -7.218   1.071  -1.601  0.00  0.00    -0.265 NA
ATOM     17  C   UNL A   1      -8.038  -0.147  -1.472  0.00  0.00    +0.105 C 
ATOM     18  C   UNL A   1      -9.344   0.073  -0.691  0.00  0.00    +0.160 C 
ATOM     19  O   UNL A   1      -9.297   1.272   0.031  0.00  0.00    -0.351 OA
ATOM     20  C   UNL A   1      -9.321   2.284  -0.937  0.00  0.00    +0.160 C 
ATOM     21  C   UNL A   1      -8.009   2.305  -1.738  0.00  0.00    +0.105 C 
ENDBRANCH  15  16
ENDBRANCH  14  15
ENDBRANCH  13  14
ENDBRANCH  10  13
ENDBRANCH   4   7
BRANCH   1  22
ATOM     22  C   UNL A   1       5.086  -2.871   1.185  0.00  0.00    +0.132 C 
BRANCH  22  24
ATOM     23  O   UNL A   1       6.524  -1.058   1.740  0.00  0.00    -0.273 OA
ATOM     24  C   UNL A   1       6.022  -1.768   0.830  0.00  0.00    +0.248 C 
ATOM     25  N   UNL A   1       6.296  -1.492  -0.545  0.00  0.00    -0.200 NA
BRANCH  25  26
ATOM     26  C   UNL A   1       6.993  -0.290  -0.981  0.00  0.00    +0.141 C 
BRANCH  26  27
ATOM     27  C   UNL A   1       6.082   0.888  -0.897  0.00  0.00    -0.001 A 
ATOM     28  C   UNL A   1       6.213   1.799   0.157  0.00  0.00    -0.003 A 
ATOM     29  C   UNL A   1       5.340   2.887   0.255  0.00  0.00    -0.000 A 
ATOM     30  C   UNL A   1       4.331   3.062  -0.698  0.00  0.00    -0.000 A 
ATOM     31  C   UNL A   1       4.196   2.150  -1.749  0.00  0.00    -0.000 A 
ATOM     32  C   UNL A   1       5.069   1.062  -1.847  0.00  0.00    -0.003 A 
ENDBRANCH  26  27
ENDBRANCH  25  26
ENDBRANCH  22  24
ENDBRANCH   1  22
TORSDOF 9
