REMARK  2 active torsions:
REMARK  status: ('A' for Active; 'I' for Inactive)
REMARK    1  A    between atoms: C_3  and  C_2 
REMARK    2  A    between atoms: C_12  and  O_15 
ROOT
ATOM      1  C   UNL d   1       1.607  -0.445   0.276  0.00  0.00     0.009 C 
ATOM      2  C   UNL d   1       1.253  -1.445  -0.847  0.00  0.00     0.047 C 
ATOM      3  C   UNL d   1      -0.222  -1.525  -1.107  0.00  0.00    -0.083 C 
ATOM      4  C   UNL d   1      -0.694  -2.619  -1.701  0.00  0.00     0.015 C 
ATOM      5  C   UNL d   1      -1.061  -0.272  -1.092  0.00  0.00     0.026 C 
ATOM      6  C   UNL d   1      -0.164   0.986  -1.005  0.00  0.00    -0.000 C 
ATOM      7  C   UNL d   1       0.823   0.888   0.172  0.00  0.00     0.003 C 
ATOM      8  C   UNL d   1       1.848   2.013   0.147  0.00  0.00     0.010 C 
ATOM      9  C   UNL d   1       3.139   1.413   0.665  0.00  0.00     0.052 C 
ATOM     10  C   UNL d   1       3.113  -0.037   0.227  0.00  0.00     0.128 C 
ATOM     11  C   UNL d   1       3.706  -0.106  -1.125  0.00  0.00    -0.078 C 
ATOM     12  C   UNL d   1       4.191  -0.162  -2.228  0.00  0.00     0.015 C 
ATOM     13  C   UNL d   1      -0.961   2.306  -0.914  0.00  0.00     0.010 C 
ATOM     14  C   UNL d   1      -2.480   2.140  -0.851  0.00  0.00     0.034 C 
ATOM     15  C   UNL d   1      -2.851   1.032   0.084  0.00  0.00    -0.079 C 
ATOM     16  C   UNL d   1      -3.945   1.133   0.846  0.00  0.00    -0.024 C 
ATOM     17  C   UNL d   1      -4.348  -0.037   1.698  0.00  0.00     0.027 C 
ATOM     18  C   UNL d   1      -4.281  -1.352   0.902  0.00  0.00     0.004 C 
ATOM     19  C   UNL d   1      -3.117  -1.428  -0.110  0.00  0.00     0.010 C 
ATOM     20  C   UNL d   1      -2.105  -0.281   0.042  0.00  0.00     0.023 C 
ENDROOT
BRANCH  10  21
ATOM     21  O   UNL d   1       3.895  -0.806   1.093  0.00  0.00    -0.377 OA
ATOM     22  HO  UNL d   1       4.811  -0.558   1.063  1.00  0.00     0.211 HD
ENDBRANCH  10  21
BRANCH   1  23
ATOM     23  C   UNL d   1       1.229  -1.133   1.607  0.00  0.00     0.010 C 
ATOM     24  C   UNL d   1       1.426  -0.261   2.841  0.00  0.00     0.006 C 
ENDBRANCH   1  23
TORSDOF 2
