REMARK  9 active torsions:
REMARK  status: ('A' for Active; 'I' for Inactive)
REMARK    1  A    between atoms: C_2  and  C_3 
REMARK    2  A    between atoms: C_3  and  C_4 
REMARK    3  A    between atoms: C_4  and  C_5 
REMARK    4  A    between atoms: C_5  and  O_7 
REMARK    5  A    between atoms: O_7  and  C_8 
REMARK    6  A    between atoms: C_8  and  C_9 
REMARK    7  A    between atoms: C_9  and  C_11 
REMARK    8  A    between atoms: C_11  and  O_35 
REMARK    9  A    between atoms: C_17  and  O_31 
ROOT
ATOM      1  C   UNL d   1       1.718   0.391  -0.981  0.00  0.00     0.131 C 
ATOM      2  C   UNL d   1       1.740   1.357  -2.168  0.00  0.00     0.025 C 
ATOM      3  C   UNL d   1       0.302   1.779  -2.354  0.00  0.00     0.013 C 
ATOM      4  C   UNL d   1      -0.512   0.540  -2.019  0.00  0.00     0.005 C 
ATOM      5  C   UNL d   1       0.383  -0.393  -1.171  0.00  0.00     0.001 C 
ATOM      6  C   UNL d   1      -0.237  -0.765   0.201  0.00  0.00     0.048 C 
ATOM      7  C   UNL d   1      -1.739  -1.112   0.184  0.00  0.00     0.160 C 
ATOM      8  C   UNL d   1      -2.572  -0.430  -0.936  0.00  0.00     0.147 C 
ATOM      9  C   UNL d   1      -1.833   0.872  -1.326  0.00  0.00     0.035 C 
ATOM     10  C   UNL d   1      -2.734   1.819  -2.103  0.00  0.00     0.013 C 
ATOM     11  C   UNL d   1      -3.759   2.393  -1.127  0.00  0.00     0.036 C 
ATOM     12  C   UNL d   1      -4.311   1.336  -0.206  0.00  0.00    -0.061 C 
ATOM     13  C   UNL d   1      -5.051   1.740   0.830  0.00  0.00     0.058 C 
ATOM     14  C   UNL d   1      -5.603   0.774   1.782  0.00  0.00     0.172 C 
ATOM     15  O   UNL d   1      -6.345   1.162   2.721  0.00  0.00    -0.289 OA
ATOM     16  C   UNL d   1      -5.251  -0.640   1.657  0.00  0.00     0.052 C 
ATOM     17  C   UNL d   1      -4.528  -1.062   0.618  0.00  0.00    -0.006 C 
ATOM     18  C   UNL d   1      -4.080  -0.151  -0.514  0.00  0.00     0.036 C 
ATOM     19  C   UNL d   1      -5.013  -0.475  -1.680  0.00  0.00     0.028 C 
ATOM     20  F   UNL d   1      -2.556  -1.278  -2.041  0.00  0.00    -0.238 F 
ATOM     21  C   UNL d   1       0.571  -1.675  -1.981  0.00  0.00     0.019 C 
ATOM     22  C   UNL d   1       2.637   2.569  -1.959  0.00  0.00     0.013 C 
ENDROOT
BRANCH   1  23
ATOM     23  C   UNL d   1       2.947  -0.501  -0.937  0.00  0.00     0.186 C 
ATOM     24  O   UNL d   1       3.760  -0.497  -1.849  0.00  0.00    -0.292 OA
BRANCH  23  25
ATOM     25  C   UNL d   1       3.179  -1.401   0.233  0.00  0.00     0.260 C 
BRANCH  25  26
ATOM     26  O   UNL d   1       3.913  -0.707   1.230  0.00  0.00    -0.314 OA
BRANCH  26  27
ATOM     27  C   UNL d   1       4.260  -1.308   2.440  0.00  0.00     0.259 C 
ATOM     28  O   UNL d   1       3.939  -2.502   2.685  0.00  0.00    -0.265 OA
BRANCH  27  29
ATOM     29  C   UNL d   1       5.050  -0.537   3.442  0.00  0.00     0.111 C 
BRANCH  29  30
ATOM     30  C   UNL d   1       6.540  -0.686   3.185  0.00  0.00     0.009 C 
BRANCH  30  31
ATOM     31  C   UNL d   1       6.966   0.176   2.011  0.00  0.00    -0.004 C 
ATOM     32  C   UNL d   1       8.449  -0.002   1.766  0.00  0.00     0.005 C 
ENDBRANCH  30  31
ENDBRANCH  29  30
ENDBRANCH  27  29
ENDBRANCH  26  27
ENDBRANCH  25  26
ENDBRANCH  23  25
ENDBRANCH   1  23
BRANCH   1  33
ATOM     33  O   UNL d   1       1.670   1.139   0.207  0.00  0.00    -0.381 OA
ATOM     34  HO  UNL d   1       0.901   1.697   0.180  1.00  0.00     0.211 HD
ENDBRANCH   1  33
BRANCH   7  35
ATOM     35  O   UNL d   1      -1.902  -2.499   0.159  0.00  0.00    -0.392 OA
ATOM     36  HO  UNL d   1      -2.827  -2.713   0.149  1.00  0.00     0.210 HD
ENDBRANCH   7  35
TORSDOF 9
