REMARK  6 active torsions:
REMARK  status: ('A' for Active; 'I' for Inactive)
REMARK    1  A    between atoms: C_13  and  N_12 
REMARK    2  A    between atoms: C_14  and  O_24 
REMARK    3  A    between atoms: C_15  and  O_22 
REMARK    4  A    between atoms: C_16  and  C_18 
REMARK    5  A    between atoms: C_18  and  O_19 
REMARK    6  A    between atoms: O_19  and  P_20 
ROOT
ATOM      1  C   UNL d   1       0.054  -0.497   0.444  0.00  0.00     0.262 C 
ATOM      2  C   UNL d   1      -0.097  -1.986   0.742  0.00  0.00     0.198 C 
ATOM      3  C   UNL d   1       1.323  -2.436   0.859  0.00  0.00     0.182 C 
ATOM      4  C   UNL d   1       2.043  -1.450  -0.047  0.00  0.00     0.180 C 
ATOM      5  O   UNL d   1       1.339  -0.231  -0.068  0.00  0.00    -0.353 OA
ENDROOT
BRANCH   1   6
ATOM      6  N   UNL d   1      -0.982   0.010  -0.453  0.00  0.00    -0.297 N 
ATOM      7  C   UNL d   1      -0.967   0.052  -1.812  0.00  0.00     0.188 A 
ATOM      8  N   UNL d   1      -2.130   0.537  -2.333  0.00  0.00    -0.346 N 
ATOM      9  C   UNL d   1      -2.874   0.787  -1.240  0.00  0.00     0.119 A 
ATOM     10  HN  UNL d   1      -2.376   0.676  -3.313  1.00  0.00     0.167 HD
ATOM     11  C   UNL d   1      -2.192   0.469  -0.120  0.00  0.00     0.144 A 
ATOM     12  C   UNL d   1      -4.167   1.282  -1.144  0.00  0.00     0.150 A 
ATOM     13  N   UNL d   1      -2.715   0.606   1.123  0.00  0.00    -0.302 N 
ATOM     14  C   UNL d   1      -3.989   1.095   1.229  0.00  0.00     0.268 A 
ATOM     15  HN  UNL d   1      -2.177   0.354   1.952  1.00  0.00     0.171 HD
ATOM     16  N   UNL d   1      -4.702   1.427   0.104  0.00  0.00    -0.305 N 
ATOM     17  F   UNL d   1      -4.550   1.250   2.452  0.00  0.00    -0.165 F 
ATOM     18  HN  UNL d   1      -5.650   1.790   0.203  1.00  0.00     0.171 HD
ATOM     19  N   UNL d   1      -4.919   1.626  -2.302  0.00  0.00    -0.080 NA
ENDBRANCH   1   6
BRANCH   2  20
ATOM     20  O   UNL d   1      -0.702  -2.660  -0.323  0.00  0.00    -0.388 OA
ATOM     21  HO  UNL d   1      -0.796  -3.587  -0.137  1.00  0.00     0.210 HD
ENDBRANCH   2  20
BRANCH   4  22
ATOM     22  C   UNL d   1       3.500  -1.233   0.340  0.00  0.00     0.217 C 
BRANCH  22  23
ATOM     23  O   UNL d   1       4.133  -0.440  -0.620  0.00  0.00    -0.280 OA
BRANCH  23  24
ATOM     24  P   UNL d   1       4.972   0.746   0.255  0.00  0.00     0.422 P 
ATOM     25  O   UNL d   1       3.993   1.635   0.989  0.00  0.00    -0.617 OA
ATOM     26  O   UNL d   1       6.018   0.017   1.369  0.00  0.00    -0.617 OA
ATOM     27  O   UNL d   1       5.878   1.687  -0.819  0.00  0.00    -0.617 OA
ENDBRANCH  23  24
ENDBRANCH  22  23
ENDBRANCH   4  22
BRANCH   3  28
ATOM     28  O   UNL d   1       1.733  -2.293   2.188  0.00  0.00    -0.390 OA
ATOM     29  HO  UNL d   1       2.636  -2.579   2.262  1.00  0.00     0.210 HD
ENDBRANCH   3  28
TORSDOF 6
