REMARK  2 active torsions:
REMARK  status: ('A' for Active; 'I' for Inactive)
REMARK    1  A    between atoms: C_2  and  C_4 
REMARK    2  A    between atoms: C_10  and  O_11 
ROOT
ATOM      1  C   UNL d   1      -0.797  -0.531   0.414  0.00  0.00     0.018 C 
ATOM      2  C   UNL d   1      -0.063  -1.266  -0.727  0.00  0.00     0.008 C 
ATOM      3  C   UNL d   1       1.390  -1.572  -0.365  0.00  0.00     0.005 C 
ATOM      4  C   UNL d   1       2.182  -0.291  -0.062  0.00  0.00    -0.016 C 
ATOM      5  C   UNL d   1       2.822   0.239  -1.329  0.00  0.00     0.010 C 
ATOM      6  C   UNL d   1       1.345   0.818   0.591  0.00  0.00     0.036 C 
ATOM      7  C   UNL d   1       0.159   0.238   1.355  0.00  0.00     0.122 C 
ENDROOT
BRANCH   1   8
ATOM      8  C   UNL d   1      -1.960   0.325  -0.113  0.00  0.00    -0.016 C 
ATOM      9  C   UNL d   1      -1.514   1.347  -1.147  0.00  0.00     0.010 C 
ATOM     10  C   UNL d   1      -3.062  -0.547  -0.685  0.00  0.00     0.010 C 
ENDBRANCH   1   8
BRANCH   7  11
ATOM     11  O   UNL d   1      -0.502   1.240   2.068  0.00  0.00    -0.395 OA
ATOM     12  HO  UNL d   1      -1.241   0.879   2.544  1.00  0.00     0.210 HD
ENDBRANCH   7  11
TORSDOF 2
