REMARK  Name = fda_4151
REMARK  4 active torsions:
REMARK  status: ('A' for Active; 'I' for Inactive)
REMARK    1  A    between atoms: O_2  and  C_3
REMARK    2  A    between atoms: C_9  and  C_13
REMARK    3  A    between atoms: C_13  and  C_14
REMARK    4  A    between atoms: C_20  and  C_21
REMARK                            x       y       z     vdW  Elec       q    Type
REMARK                         _______ _______ _______ _____ _____    ______ ____
ROOT
ATOM      1  C   UNL A   1      -3.847  -0.735  -0.335  0.00  0.00    +0.139 A 
ATOM      2  C   UNL A   1      -4.668   0.041   0.490  0.00  0.00    +0.038 A 
ATOM      3  C   UNL A   1      -4.150   1.150   1.163  0.00  0.00    +0.022 A 
ATOM      4  C   UNL A   1      -2.804   1.494   1.017  0.00  0.00    +0.081 A 
ATOM      5  C   UNL A   1      -1.962   0.720   0.185  0.00  0.00    +0.019 A 
ATOM      6  C   UNL A   1      -2.494  -0.392  -0.485  0.00  0.00    +0.038 A 
ATOM      7  C   UNL A   1      -0.610   1.086   0.051  0.00  0.00    +0.012 A 
ATOM      8  C   UNL A   1      -0.133   2.199   0.756  0.00  0.00    +0.019 A 
ATOM      9  C   UNL A   1      -1.000   2.934   1.566  0.00  0.00    +0.099 A 
ATOM     10  N   UNL A   1      -2.305   2.571   1.678  0.00  0.00    -0.244 NA
ENDROOT
BRANCH   1  12
ATOM     11  C   UNL A   1      -3.639  -2.682  -1.847  0.00  0.00    +0.253 C 
ATOM     12  O   UNL A   1      -4.399  -1.839  -0.992  0.00  0.00    -0.471 OA
ENDBRANCH   1  12
BRANCH   7  13
ATOM     13  C   UNL A   1       0.332   0.277  -0.798  0.00  0.00    +0.189 C 
ATOM     14  O   UNL A   1       1.187   1.103  -1.535  0.00  0.00    -0.217 OA
BRANCH  13  15
ATOM     15  C   UNL A   1       1.105  -0.757   0.030  0.00  0.00    +0.092 C 
ATOM     16  C   UNL A   1       1.878  -1.760  -0.851  0.00  0.00    +0.019 C 
ATOM     17  C   UNL A   1       3.277  -1.981  -0.255  0.00  0.00    +0.008 C 
ATOM     18  C   UNL A   1       3.101  -2.385   1.215  0.00  0.00    +0.018 C 
ATOM     19  C   UNL A   1       2.376  -1.252   1.984  0.00  0.00    +0.072 C 
ATOM     20  C   UNL A   1       3.183   0.424   0.475  0.00  0.00    +0.076 C 
ATOM     21  C   UNL A   1       4.028  -0.643  -0.259  0.00  0.00    +0.038 C 
ATOM     22  N   UNL A   1       1.966  -0.162   1.078  0.00  0.00    -0.271 NA
BRANCH  21  23
ATOM     23  C   UNL A   1       4.365  -0.208  -1.651  0.00  0.00    -0.025 C 
ATOM     24  C   UNL A   1       5.213   0.795  -1.866  0.00  0.00    -0.005 C 
ENDBRANCH  21  23
ENDBRANCH  13  15
ENDBRANCH   7  13
TORSDOF 4
