REMARK  8 active torsions:
REMARK  status: ('A' for Active; 'I' for Inactive)
REMARK    1  A    between atoms: C_2  and  C_4 
REMARK    2  A    between atoms: C_2  and  O_15 
REMARK    3  A    between atoms: C_4  and  O_6 
REMARK    4  A    between atoms: O_6  and  C_7 
REMARK    5  A    between atoms: C_7  and  C_8 
REMARK    6  A    between atoms: C_8  and  C_9 
REMARK    7  A    between atoms: C_9  and  C_10 
REMARK       I    between atoms: C_10  and  N_12 
REMARK    8  A    between atoms: O_15  and  C_16 
ROOT
ATOM      1  C   UNL d   1       1.850   0.948   2.316  0.00  0.00     0.057 C 
ATOM      2  C   UNL d   1       1.187   0.210   1.161  0.00  0.00     0.148 C 
ATOM      3  C   UNL d   1       1.333  -1.292   1.362  0.00  0.00     0.057 C 
ENDROOT
BRANCH   2   4
ATOM      4  C   UNL d   1      -0.274   0.556   1.144  0.00  0.00     0.293 C 
ATOM      5  O   UNL d   1      -0.999   0.277   2.141  0.00  0.00    -0.262 OA
BRANCH   4   6
ATOM      6  O   UNL d   1      -0.826   1.192   0.027  0.00  0.00    -0.319 OA
BRANCH   6   7
ATOM      7  C   UNL d   1      -2.209   1.513  -0.062  0.00  0.00     0.179 C 
BRANCH   7   8
ATOM      8  C   UNL d   1      -3.017   0.265  -0.361  0.00  0.00     0.036 C 
BRANCH   8   9
ATOM      9  C   UNL d   1      -4.489   0.617  -0.415  0.00  0.00     0.105 C 
BRANCH   9  10
ATOM     10  C   UNL d   1      -5.295  -0.612  -0.679  0.00  0.00     0.219 C 
ATOM     11  O   UNL d   1      -5.538  -0.934  -1.873  0.00  0.00    -0.273 OA
ATOM     12  N   UNL d   1      -5.765  -1.434   0.400  0.00  0.00    -0.361 N 
ATOM     13  C   UNL d   1      -6.527  -2.643   0.131  0.00  0.00     0.152 C 
ATOM     14  C   UNL d   1      -5.501  -1.083   1.786  0.00  0.00     0.152 C 
ENDBRANCH   9  10
ENDBRANCH   8   9
ENDBRANCH   7   8
ENDBRANCH   6   7
ENDBRANCH   4   6
ENDBRANCH   2   4
BRANCH   2  15
ATOM     15  O   UNL d   1       1.779   0.604  -0.084  0.00  0.00    -0.331 OA
BRANCH  15  16
ATOM     16  C   UNL d   1       3.128   0.445  -0.442  0.00  0.00     0.070 A 
ATOM     17  C   UNL d   1       3.541   0.886  -1.704  0.00  0.00     0.038 A 
ATOM     18  C   UNL d   1       4.875   0.747  -2.101  0.00  0.00     0.026 A 
ATOM     19  C   UNL d   1       5.804   0.165  -1.236  0.00  0.00     0.034 A 
ATOM     20  C   UNL d   1       5.401  -0.279   0.026  0.00  0.00     0.026 A 
ATOM     21 CL   UNL d   1       7.473  -0.009  -1.733  0.00  0.00    -0.084 Cl
ATOM     22  C   UNL d   1       4.068  -0.140   0.422  0.00  0.00     0.038 A 
ENDBRANCH  15  16
ENDBRANCH   2  15
TORSDOF 8
