REMARK  Name = fda_7421
REMARK  5 active torsions:
REMARK  status: ('A' for Active; 'I' for Inactive)
REMARK    1  A    between atoms: C_1  and  C_2
REMARK    2  A    between atoms: C_1  and  C_6
REMARK    3  A    between atoms: C_2  and  C_3
REMARK    4  A    between atoms: C_8  and  C_17
REMARK    5  A    between atoms: C_9  and  C_11
REMARK                            x       y       z     vdW  Elec       q    Type
REMARK                         _______ _______ _______ _____ _____    ______ ____
ROOT
ATOM      1  C   UNL A   1       1.849   0.250  -0.271  0.00  0.00    +0.206 A 
ATOM      2  N   UNL A   1       1.304  -0.956  -0.525  0.00  0.00    -0.212 NA
ATOM      3  C   UNL A   1       0.008  -0.795  -0.189  0.00  0.00    +0.118 A 
ATOM      4  C   UNL A   1      -0.176   0.507   0.270  0.00  0.00    +0.164 A 
ATOM      5  O   UNL A   1       0.981   1.119   0.189  0.00  0.00    -0.438 OA
ENDROOT
BRANCH   4   6
ATOM      6  C   UNL A   1      -1.387   1.151   0.812  0.00  0.00    +0.036 A 
ATOM      7  C   UNL A   1      -1.522   2.543   0.723  0.00  0.00    +0.003 A 
ATOM      8  C   UNL A   1      -2.638   3.182   1.272  0.00  0.00    +0.000 A 
ATOM      9  C   UNL A   1      -3.620   2.434   1.925  0.00  0.00    +0.000 A 
ATOM     10  C   UNL A   1      -3.483   1.048   2.036  0.00  0.00    +0.000 A 
ATOM     11  C   UNL A   1      -2.367   0.410   1.488  0.00  0.00    +0.003 A 
ENDBRANCH   4   6
BRANCH   3  12
ATOM     12  C   UNL A   1      -1.001  -1.849  -0.406  0.00  0.00    +0.021 A 
ATOM     13  C   UNL A   1      -0.624  -3.196  -0.312  0.00  0.00    +0.002 A 
ATOM     14  C   UNL A   1      -1.552  -4.211  -0.560  0.00  0.00    +0.000 A 
ATOM     15  C   UNL A   1      -2.863  -3.886  -0.920  0.00  0.00    +0.000 A 
ATOM     16  C   UNL A   1      -3.243  -2.547  -1.036  0.00  0.00    +0.000 A 
ATOM     17  C   UNL A   1      -2.313  -1.533  -0.787  0.00  0.00    +0.002 A 
ENDBRANCH   3  12
BRANCH   1  18
ATOM     18  C   UNL A   1       3.282   0.568  -0.517  0.00  0.00    +0.097 C 
BRANCH  18  19
ATOM     19  C   UNL A   1       3.443   1.159  -1.905  0.00  0.00    +0.124 C 
BRANCH  19  20
ATOM     20  C   UNL A   1       4.875   1.478  -2.153  0.00  0.00    +0.365 C 
ATOM     21  O   UNL A   1       5.732   0.496  -2.630  0.00  0.00    -0.246 OA
ATOM     22  O   UNL A   1       5.316   2.629  -1.901  0.00  0.00    -0.246 OA
ENDBRANCH  19  20
ENDBRANCH  18  19
ENDBRANCH   1  18
TORSDOF 5
