REMARK  5 active torsions:
REMARK  status: ('A' for Active; 'I' for Inactive)
REMARK    1  A    between atoms: O_1  and  C_3 
REMARK    2  A    between atoms: C_4  and  C_3 
REMARK    3  A    between atoms: C_8  and  O_9 
REMARK    4  A    between atoms: C_11  and  O_12 
REMARK    5  A    between atoms: C_14  and  O_15 
ROOT
ATOM      1  C   UNK d   1       0.772   0.878   0.362  0.00  0.00     0.240 C 
ATOM      2  N   UNK d   1      -0.224   1.746  -0.276  0.00  0.00    -0.064 N 
ATOM      3  HN1 UNK d   1       0.205   2.578  -0.682  1.00  0.00     0.277 HD
ATOM      4  HN2 UNK d   1      -0.823   2.202   0.412  1.00  0.00     0.277 HD
ATOM      5  C   UNK d   1      -1.790  -0.138  -0.610  0.00  0.00     0.175 C 
ATOM      6  C   UNK d   1      -0.852  -1.086   0.137  0.00  0.00     0.179 C 
ATOM      7  C   UNK d   1       0.085  -0.306   1.067  0.00  0.00     0.182 C 
ATOM      8  C   UNK d   0      -1.005   1.000  -1.268  0.00  0.00     0.267 C 
ENDROOT
BRANCH   1   9
ATOM      9  C   UNK d   1       1.861   0.469  -0.631  0.00  0.00     0.199 C 
BRANCH   9  10
ATOM     10  O   UNK d   1       3.007   0.062   0.053  0.00  0.00    -0.399 OA
ATOM     11  HO  UNK d   1       3.683  -0.192  -0.564  1.00  0.00     0.209 HD
ENDBRANCH   9  10
ENDBRANCH   1   9
BRANCH   7  12
ATOM     12  O   UNK d   1       1.013  -1.155   1.675  0.00  0.00    -0.391 OA
ATOM     13  HO  UNK d   1       1.594  -0.673   2.251  1.00  0.00     0.210 HD
ENDBRANCH   7  12
BRANCH   6  14
ATOM     14  O   UNK d   1      -0.123  -1.852  -0.777  0.00  0.00    -0.390 OA
ATOM     15  HO  UNK d   1       0.460  -2.441  -0.313  1.00  0.00     0.210 HD
ENDBRANCH   6  14
BRANCH   5  16
ATOM     16  O   UNK d   1      -2.745   0.382   0.266  0.00  0.00    -0.391 OA
ATOM     17  HO  UNK d   1      -3.232  -0.324   0.675  1.00  0.00     0.210 HD
ENDBRANCH   5  16
TORSDOF 5
