REMARK  3 active torsions:
REMARK  status: ('A' for Active; 'I' for Inactive)
REMARK    1  A    between atoms: C_2  and  N_3 
REMARK    2  A    between atoms: N_3  and  C_6 
REMARK    3  A    between atoms: C_10  and  O_11 
ROOT
ATOM      1  C   UNL d   1      -0.226  -0.101   0.115  0.00  0.00     0.138 A 
ATOM      2  C   UNL d   1      -0.018   0.610   1.315  0.00  0.00     0.037 A 
ATOM      3  C   UNL d   1       1.273   0.856   1.790  0.00  0.00     0.005 A 
ATOM      4  C   UNL d   1       2.380   0.383   1.083  0.00  0.00     0.036 A 
ATOM      5  C   UNL d   1       2.197  -0.340  -0.096  0.00  0.00     0.067 A 
ATOM      6  C   UNL d   1       0.907  -0.588  -0.572  0.00  0.00     0.073 A 
ENDROOT
BRANCH   1   7
ATOM      7  N   UNL d   1      -1.578  -0.395  -0.341  0.00  0.00    -0.045 N 
ATOM      8  C   UNL d   1      -2.124  -1.451   0.497  0.00  0.00     0.279 C 
ATOM      9  C   UNL d   1      -1.624  -0.882  -1.719  0.00  0.00     0.279 C 
BRANCH   7  10
ATOM     10  C   UNL d   1      -2.471   0.767  -0.219  0.00  0.00     0.238 C 
ATOM     11  C   UNL d   1      -2.014   1.960  -1.058  0.00  0.00     0.035 C 
ENDBRANCH   7  10
ENDBRANCH   1   7
BRANCH   5  12
ATOM     12  O   UNL d   1       3.297  -0.817  -0.795  0.00  0.00    -0.361 OA
ATOM     13  HO  UNL d   1       3.173  -1.310  -1.598  1.00  0.00     0.217 HD
ENDBRANCH   5  12
TORSDOF 3
