REMARK  5 active torsions:
REMARK  status: ('A' for Active; 'I' for Inactive)
REMARK    1  A    between atoms: C_18  and  O_19 
REMARK    2  A    between atoms: C_24  and  O_25 
REMARK    3  A    between atoms: C_24  and  C_27 
REMARK    4  A    between atoms: C_27  and  C_29 
REMARK    5  A    between atoms: C_29  and  O_30 
ROOT
ATOM      1  C   UNL d   1      -3.830   1.125  -2.742  0.00  0.00     0.013 C 
ATOM      2  C   UNL d   1      -2.905  -0.047  -2.448  0.00  0.00     0.025 C 
ATOM      3  C   UNL d   1      -1.454   0.421  -2.604  0.00  0.00     0.013 C 
ATOM      4  C   UNL d   1      -0.764  -0.082  -1.350  0.00  0.00     0.004 C 
ATOM      5  C   UNL d   1       0.559   0.547  -0.917  0.00  0.00     0.018 C 
ATOM      6  C   UNL d   1       1.558   0.572  -2.083  0.00  0.00     0.011 C 
ATOM      7  C   UNL d   1       2.883   1.204  -1.666  0.00  0.00     0.036 C 
ATOM      8  C   UNL d   1       3.404   0.544  -0.426  0.00  0.00    -0.062 C 
ATOM      9  C   UNL d   1       4.681   0.158  -0.389  0.00  0.00     0.058 C 
ATOM     10  C   UNL d   1       5.230  -0.488   0.806  0.00  0.00     0.172 C 
ATOM     11  O   UNL d   1       6.442  -0.820   0.846  0.00  0.00    -0.289 OA
ATOM     12  C   UNL d   1       4.351  -0.769   1.943  0.00  0.00     0.052 C 
ATOM     13  C   UNL d   1       3.078  -0.372   1.923  0.00  0.00    -0.007 C 
ATOM     14  C   UNL d   1       2.469   0.416   0.775  0.00  0.00     0.022 C 
ATOM     15  C   UNL d   1       2.240   1.837   1.288  0.00  0.00     0.027 C 
ATOM     16  C   UNL d   1       1.132  -0.255   0.296  0.00  0.00     0.081 C 
ATOM     17 CL   UNL d   1       1.502  -1.943  -0.242  0.00  0.00    -0.115 Cl
ATOM     18  C   UNL d   1       0.062  -0.405   1.431  0.00  0.00     0.144 C 
ATOM     19  C   UNL d   1      -1.314  -0.891   0.922  0.00  0.00     0.046 C 
ATOM     20  C   UNL d   1      -1.818  -0.054  -0.264  0.00  0.00     0.001 C 
ATOM     21  C   UNL d   1      -2.077   1.393   0.186  0.00  0.00     0.019 C 
ATOM     22  C   UNL d   1      -3.023  -0.658  -1.023  0.00  0.00     0.131 C 
ENDROOT
BRANCH  22  23
ATOM     23  O   UNL d   1      -2.799  -2.036  -1.172  0.00  0.00    -0.381 OA
ATOM     24  HO  UNL d   1      -3.539  -2.407  -1.638  1.00  0.00     0.211 HD
ENDBRANCH  22  23
BRANCH  22  25
ATOM     25  C   UNL d   1      -4.384  -0.483  -0.338  0.00  0.00     0.185 C 
ATOM     26  O   UNL d   1      -5.067  -1.468  -0.098  0.00  0.00    -0.292 OA
BRANCH  25  27
ATOM     27  C   UNL d   1      -4.945   0.858   0.029  0.00  0.00     0.245 C 
BRANCH  27  28
ATOM     28  O   UNL d   1      -5.110   0.941   1.411  0.00  0.00    -0.393 OA
ATOM     29  HO  UNL d   1      -5.465   1.791   1.644  1.00  0.00     0.209 HD
ENDBRANCH  27  28
ENDBRANCH  25  27
ENDBRANCH  22  25
BRANCH  18  30
ATOM     30  O   UNL d   1      -0.101   0.758   2.187  0.00  0.00    -0.394 OA
ATOM     31  HO  UNL d   1      -0.750   0.666   2.875  1.00  0.00     0.210 HD
ENDBRANCH  18  30
TORSDOF 5
