REMARK  2 active torsions:
REMARK  status: ('A' for Active; 'I' for Inactive)
REMARK    1  A    between atoms: C_11  and  O_17 
REMARK    2  A    between atoms: O_17  and  C_18 
ROOT
ATOM      1  C   UNL d   1      -1.939   0.115   2.436  0.00  0.00     0.017 A 
ATOM      2  C   UNL d   1      -2.976  -0.738   2.824  0.00  0.00     0.027 A 
ATOM      3  C   UNL d   1      -3.254  -1.889   2.082  0.00  0.00     0.048 A 
ATOM      4  C   UNL d   1      -2.495  -2.192   0.948  0.00  0.00     0.056 A 
ATOM      5  C   UNL d   1      -1.457  -1.345   0.552  0.00  0.00     0.046 A 
ATOM      6  N   UNL d   1      -0.724  -1.645  -0.552  0.00  0.00    -0.355 N 
ATOM      7  HN  UNL d   1      -0.943  -2.490  -1.079  1.00  0.00     0.166 HD
ATOM      8  C   UNL d   1       0.294  -0.849  -0.971  0.00  0.00     0.045 A 
ATOM      9  C   UNL d   1       1.023  -1.195  -2.111  0.00  0.00     0.033 A 
ATOM     10  C   UNL d   1       2.071  -0.381  -2.549  0.00  0.00     0.039 A 
ATOM     11  C   UNL d   1       2.401   0.787  -1.853  0.00  0.00     0.069 A 
ATOM     12  C   UNL d   1       1.671   1.136  -0.705  0.00  0.00     0.052 A 
ATOM     13  C   UNL d   1       0.617   0.328  -0.257  0.00  0.00     0.018 A 
ATOM     14  C   UNL d   1      -0.124   0.662   0.888  0.00  0.00     0.071 A 
ATOM     15  C   UNL d   1      -1.172  -0.178   1.300  0.00  0.00     0.016 A 
ATOM     16  N   UNL d   1       0.183   1.846   1.626  0.00  0.00    -0.101 NA
ATOM     17  N   UNL d   1      -4.310  -2.754   2.481  0.00  0.00    -0.102 NA
ENDROOT
BRANCH  11  18
ATOM     18  O   UNL d   1       3.458   1.576  -2.319  0.00  0.00    -0.351 OA
BRANCH  18  19
ATOM     19  C   UNL d   1       3.844   2.803  -1.708  0.00  0.00     0.171 C 
ATOM     20  C   UNL d   1       2.889   3.911  -2.112  0.00  0.00     0.034 C 
ENDBRANCH  18  19
ENDBRANCH  11  18
TORSDOF 2
