REMARK  12 active torsions:
REMARK  status: ('A' for Active; 'I' for Inactive)
REMARK    1  A    between atoms: C_4  and  C_2 
REMARK    2  A    between atoms: C_13  and  C_14 
REMARK    3  A    between atoms: C_13  and  O_31 
REMARK    4  A    between atoms: C_14  and  C_15 
REMARK    5  A    between atoms: C_15  and  N_38 
REMARK    6  A    between atoms: C_17  and  C_18 
REMARK    7  A    between atoms: C_17  and  N_38 
REMARK    8  A    between atoms: C_18  and  C_19 
REMARK    9  A    between atoms: C_19  and  C_20 
REMARK   10  A    between atoms: O_31  and  C_32 
REMARK   11  A    between atoms: C_32  and  C_34 
REMARK   12  A    between atoms: C_34  and  O_35 
ROOT
ATOM      1  C   UNL d   1      -2.733  -0.243   0.823  0.00  0.00     0.058 C 
ATOM      2  C   UNL d   1      -4.142  -0.019   1.365  0.00  0.00    -0.044 A 
ATOM      3  C   UNL d   1      -4.489  -0.512   2.634  0.00  0.00     0.011 A 
ATOM      4  C   UNL d   1      -5.787  -0.366   3.127  0.00  0.00     0.043 A 
ATOM      5  C   UNL d   1      -6.761   0.262   2.350  0.00  0.00     0.117 A 
ATOM      6  C   UNL d   1      -6.442   0.729   1.074  0.00  0.00     0.049 A 
ATOM      7  C   UNL d   1      -5.147   0.576   0.570  0.00  0.00    -0.048 A 
ATOM      8  C   UNL d   1      -4.851   1.100  -0.798  0.00  0.00     0.042 C 
ATOM      9  C   UNL d   1      -3.698   0.333  -1.431  0.00  0.00     0.044 C 
ATOM     10  C   UNL d   1      -2.445   0.420  -0.553  0.00  0.00     0.081 C 
ATOM     11  F   UNL d   1      -8.019   0.409   2.830  0.00  0.00    -0.206 F 
ENDROOT
BRANCH  10  12
ATOM     12  C   UNL d   1      -1.339  -0.358  -1.280  0.00  0.00     0.069 C 
BRANCH  12  13
ATOM     13  C   UNL d   1       0.053  -0.083  -0.724  0.00  0.00     0.275 C 
BRANCH  13  14
ATOM     14  N   UNL d   1       1.029  -0.918  -1.401  0.00  0.00     0.084 N 
ATOM     15  C   UNL d   1       1.630  -0.106  -2.446  0.00  0.00     0.309 C 
BRANCH  14  16
ATOM     16  C   UNL d   1       2.076  -1.193  -0.434  0.00  0.00     0.272 C 
BRANCH  16  17
ATOM     17  C   UNL d   1       2.429  -2.670  -0.467  0.00  0.00     0.038 C 
BRANCH  17  18
ATOM     18  C   UNL d   1       3.552  -2.969   0.512  0.00  0.00     0.078 C 
BRANCH  18  19
ATOM     19  C   UNL d   1       4.862  -2.502  -0.029  0.00  0.00     0.082 A 
ATOM     20  N   UNL d   1       5.603  -3.244  -0.893  0.00  0.00    -0.344 N 
ATOM     21  C   UNL d   1       6.648  -2.442  -1.137  0.00  0.00     0.060 A 
ATOM     22  HN  UNL d   1       5.412  -4.176  -1.262  1.00  0.00     0.167 HD
ATOM     23  C   UNL d   1       6.517  -1.275  -0.447  0.00  0.00     0.060 A 
ATOM     24  C   UNL d   1       7.739  -2.695  -1.964  0.00  0.00     0.032 A 
ATOM     25  N   UNL d   1       5.383  -1.282   0.267  0.00  0.00    -0.344 N 
ATOM     26  C   UNL d   1       7.466  -0.258  -0.524  0.00  0.00     0.032 A 
ATOM     27  HN  UNL d   1       5.006  -0.557   0.877  1.00  0.00     0.167 HD
ATOM     28  C   UNL d   1       8.584  -0.479  -1.349  0.00  0.00     0.002 A 
ATOM     29  C   UNL d   1       8.720  -1.690  -2.065  0.00  0.00     0.002 A 
ENDBRANCH  18  19
ENDBRANCH  17  18
ENDBRANCH  16  17
ENDBRANCH  14  16
ENDBRANCH  13  14
ENDBRANCH  12  13
ENDBRANCH  10  12
BRANCH  10  30
ATOM     30  O   UNL d   1      -2.073   1.795  -0.364  0.00  0.00    -0.308 OA
BRANCH  30  31
ATOM     31  C   UNL d   1      -1.760   2.690  -1.395  0.00  0.00     0.283 C 
ATOM     32  O   UNL d   1      -1.777   2.329  -2.602  0.00  0.00    -0.263 OA
BRANCH  31  33
ATOM     33  C   UNL d   1      -1.417   4.097  -1.056  0.00  0.00     0.277 C 
BRANCH  33  34
ATOM     34  O   UNL d   1      -2.549   4.750  -0.571  0.00  0.00    -0.386 OA
ATOM     35  C   UNL d   1      -2.056   5.662   0.361  0.00  0.00     0.202 C 
ENDBRANCH  33  34
ENDBRANCH  31  33
ENDBRANCH  30  31
ENDBRANCH  10  30
BRANCH   1  36
ATOM     36  C   UNL d   1      -1.604   0.004   1.847  0.00  0.00    -0.011 C 
ATOM     37  C   UNL d   1      -1.756   1.311   2.612  0.00  0.00     0.010 C 
ATOM     38  C   UNL d   1      -1.448  -1.163   2.803  0.00  0.00     0.010 C 
ENDBRANCH   1  36
TORSDOF 12
