REMARK  9 active torsions:
REMARK  status: ('A' for Active; 'I' for Inactive)
REMARK    1  A    between atoms: C_2  and  C_3 
REMARK    2  A    between atoms: C_3  and  C_4 
REMARK    3  A    between atoms: C_4  and  C_5 
REMARK    4  A    between atoms: C_5  and  O_7 
REMARK    5  A    between atoms: C_8  and  O_7 
REMARK    6  A    between atoms: C_8  and  C_32 
REMARK    7  A    between atoms: C_14  and  O_28 
REMARK    8  A    between atoms: C_32  and  C_34 
REMARK    9  A    between atoms: C_34  and  O_35 
ROOT
ATOM      1  C   UNL d   1       2.059  -0.398  -0.184  0.00  0.00     0.144 C 
ATOM      2  C   UNL d   1       2.048  -1.895  -0.547  0.00  0.00     0.026 C 
ATOM      3  C   UNL d   1       0.607  -2.252  -0.811  0.00  0.00     0.013 C 
ATOM      4  C   UNL d   1      -0.102  -1.503   0.288  0.00  0.00     0.005 C 
ATOM      5  C   UNL d   1       0.685  -0.205   0.578  0.00  0.00     0.002 C 
ATOM      6  C   UNL d   1      -0.030   1.112   0.157  0.00  0.00     0.048 C 
ATOM      7  C   UNL d   1      -1.565   1.084   0.126  0.00  0.00     0.160 C 
ATOM      8  C   UNL d   1      -2.083  -0.134  -0.659  0.00  0.00     0.147 C 
ATOM      9  C   UNL d   1      -1.613  -1.353   0.144  0.00  0.00     0.035 C 
ATOM     10  C   UNL d   1      -2.430  -2.615  -0.069  0.00  0.00     0.013 C 
ATOM     11  C   UNL d   1      -3.823  -2.374   0.515  0.00  0.00     0.036 C 
ATOM     12  C   UNL d   1      -4.354  -1.001   0.181  0.00  0.00    -0.061 C 
ATOM     13  C   UNL d   1      -5.471  -0.599   0.793  0.00  0.00     0.058 C 
ATOM     14  C   UNL d   1      -6.031   0.731   0.536  0.00  0.00     0.172 C 
ATOM     15  O   UNL d   1      -7.111   1.078   1.080  0.00  0.00    -0.289 OA
ATOM     16  C   UNL d   1      -5.306   1.665  -0.326  0.00  0.00     0.052 C 
ATOM     17  C   UNL d   1      -4.198   1.275  -0.957  0.00  0.00    -0.006 C 
ATOM     18  C   UNL d   1      -3.649  -0.140  -0.876  0.00  0.00     0.036 C 
ATOM     19  C   UNL d   1      -3.982  -0.782  -2.222  0.00  0.00     0.028 C 
ATOM     20  F   UNL d   1      -1.453  -0.139  -1.898  0.00  0.00    -0.238 F 
ATOM     21  C   UNL d   1       0.860  -0.166   2.092  0.00  0.00     0.019 C 
ATOM     22  C   UNL d   1       2.964  -2.318  -1.689  0.00  0.00     0.013 C 
ENDROOT
BRANCH   1  23
ATOM     23  O   UNL d   1       3.196  -0.171   0.668  0.00  0.00    -0.301 OA
BRANCH  23  24
ATOM     24  C   UNL d   1       3.526   1.050   1.275  0.00  0.00     0.260 C 
ATOM     25  O   UNL d   1       2.805   2.073   1.120  0.00  0.00    -0.265 OA
BRANCH  24  26
ATOM     26  C   UNL d   1       4.766   1.147   2.089  0.00  0.00     0.111 C 
BRANCH  26  27
ATOM     27  C   UNL d   1       5.959   1.375   1.178  0.00  0.00     0.009 C 
BRANCH  27  28
ATOM     28  C   UNL d   1       7.239   1.450   1.990  0.00  0.00    -0.004 C 
ATOM     29  C   UNL d   1       7.663   0.065   2.441  0.00  0.00     0.005 C 
ENDBRANCH  27  28
ENDBRANCH  26  27
ENDBRANCH  24  26
ENDBRANCH  23  24
ENDBRANCH   1  23
BRANCH   1  30
ATOM     30  C   UNL d   1       2.175   0.430  -1.477  0.00  0.00     0.186 C 
ATOM     31  O   UNL d   1       1.289   0.380  -2.317  0.00  0.00    -0.292 OA
BRANCH  30  32
ATOM     32  C   UNL d   1       3.385   1.262  -1.772  0.00  0.00     0.245 C 
BRANCH  32  33
ATOM     33  O   UNL d   1       4.050   0.755  -2.888  0.00  0.00    -0.393 OA
ATOM     34  HO  UNL d   1       4.817   1.283  -3.075  1.00  0.00     0.209 HD
ENDBRANCH  32  33
ENDBRANCH  30  32
ENDBRANCH   1  30
BRANCH   7  35
ATOM     35  O   UNL d   1      -2.077   1.114   1.427  0.00  0.00    -0.392 OA
ATOM     36  HO  UNL d   1      -3.027   1.097   1.408  1.00  0.00     0.210 HD
ENDBRANCH   7  35
TORSDOF 9
