REMARK  3 active torsions:
REMARK  status: ('A' for Active; 'I' for Inactive)
REMARK    1  A    between atoms: C_14  and  N_10 
REMARK    2  A    between atoms: C_17  and  C_19 
REMARK    3  A    between atoms: C_19  and  O_20 
ROOT
ATOM      1  C   UNL d   1      -2.894  -1.865   0.990  0.00  0.00     0.185 A 
ATOM      2  N   UNL d   1      -3.869  -0.962   0.644  0.00  0.00    -0.318 N 
ATOM      3  HN  UNL d   1      -4.849  -1.198   0.801  1.00  0.00     0.169 HD
ATOM      4  C   UNL d   1      -3.550   0.247   0.093  0.00  0.00     0.277 A 
ATOM      5  O   UNL d   1      -4.451   1.069  -0.218  0.00  0.00    -0.266 OA
ATOM      6  C   UNL d   1      -2.207   0.533  -0.107  0.00  0.00     0.146 A 
ATOM      7  C   UNL d   1      -1.268  -0.372   0.240  0.00  0.00     0.144 A 
ATOM      8  N   UNL d   1      -1.573  -1.573   0.789  0.00  0.00    -0.336 N 
ATOM      9  HN  UNL d   1      -0.842  -2.237   1.044  1.00  0.00     0.168 HD
ATOM     10  N   UNL d   1      -0.057   0.118  -0.039  0.00  0.00    -0.300 N 
ATOM     11  C   UNL d   1      -0.300   1.351  -0.556  0.00  0.00     0.188 A 
ATOM     12  N   UNL d   1      -1.632   1.639  -0.616  0.00  0.00    -0.345 N 
ATOM     13  HN  UNL d   1      -2.082   2.486  -0.962  1.00  0.00     0.167 HD
ENDROOT
BRANCH  10  14
ATOM     14  C   UNL d   1       1.233  -0.509   0.214  0.00  0.00     0.231 C 
ATOM     15  O   UNL d   1       2.062  -0.387  -0.912  0.00  0.00    -0.359 OA
ATOM     16  C   UNL d   1       3.369  -0.368  -0.405  0.00  0.00     0.147 C 
ATOM     17  C   UNL d   1       3.341   0.287   0.958  0.00  0.00     0.038 C 
ATOM     18  C   UNL d   1       1.915   0.146   1.396  0.00  0.00     0.057 C 
BRANCH  16  19
ATOM     19  C   UNL d   1       4.274   0.406  -1.346  0.00  0.00     0.196 C 
BRANCH  19  20
ATOM     20  O   UNL d   1       5.607   0.239  -0.971  0.00  0.00    -0.398 OA
ATOM     21  HO  UNL d   1       6.174   0.724  -1.560  1.00  0.00     0.209 HD
ENDBRANCH  19  20
ENDBRANCH  16  19
ENDBRANCH  10  14
TORSDOF 3
