REMARK  6 active torsions:
REMARK  status: ('A' for Active; 'I' for Inactive)
REMARK    1  A    between atoms: C_11  and  O_12 
REMARK    2  A    between atoms: O_12  and  C_13 
REMARK    3  A    between atoms: C_13  and  C_15 
REMARK    4  A    between atoms: C_15  and  C_16 
REMARK    5  A    between atoms: C_16  and  C_17 
REMARK    6  A    between atoms: C_30  and  C_34 
ROOT
ATOM      1  C   UNL d   1       3.788  -0.463   2.750  0.00  0.00     0.018 C 
ATOM      2  C   UNL d   1       3.340  -1.061   1.425  0.00  0.00    -0.016 C 
ATOM      3  C   UNL d   1       1.791  -1.026   1.379  0.00  0.00     0.008 C 
ATOM      4  C   UNL d   1       1.142  -1.988   2.379  0.00  0.00     0.007 C 
ATOM      5  C   UNL d   1      -0.351  -1.713   2.443  0.00  0.00     0.015 C 
ATOM      6  C   UNL d   1      -1.071  -1.967   1.104  0.00  0.00    -0.004 C 
ATOM      7  C   UNL d   1      -0.087  -1.990  -0.097  0.00  0.00    -0.012 C 
ATOM      8  C   UNL d   1       1.139  -1.034  -0.039  0.00  0.00    -0.011 C 
ATOM      9  C   UNL d   1       2.159  -1.500  -1.089  0.00  0.00     0.017 C 
ATOM     10  C   UNL d   1       3.435  -0.652  -1.118  0.00  0.00     0.034 C 
ATOM     11  C   UNL d   1       3.921  -0.217   0.271  0.00  0.00     0.140 C 
ATOM     12  C   UNL d   1       0.708   0.389  -0.376  0.00  0.00     0.021 C 
ATOM     13  C   UNL d   1      -0.812  -2.035  -1.412  0.00  0.00     0.176 C 
ATOM     14  O   UNL d   1      -0.308  -2.636  -2.396  0.00  0.00    -0.288 OA
ATOM     15  C   UNL d   1      -2.089  -1.341  -1.562  0.00  0.00     0.063 C 
ATOM     16  C   UNL d   1      -2.766  -0.846  -0.523  0.00  0.00    -0.042 C 
ATOM     17  C   UNL d   1      -2.248  -0.920   0.912  0.00  0.00    -0.005 C 
ATOM     18  C   UNL d   1      -1.825   0.508   1.360  0.00  0.00     0.016 C 
ATOM     19  C   UNL d   1      -2.516   1.702   0.650  0.00  0.00     0.015 C 
ATOM     20  C   UNL d   1      -3.909   1.384   0.092  0.00  0.00    -0.020 C 
ATOM     21  C   UNL d   1      -3.803   0.185  -0.862  0.00  0.00    -0.063 C 
ATOM     22  C   UNL d   1      -5.140  -0.299  -1.417  0.00  0.00     0.055 C 
ATOM     23  C   UNL d   1      -6.043   0.880  -1.854  0.00  0.00     0.048 C 
ATOM     24  C   UNL d   1      -5.260   2.212  -1.958  0.00  0.00     0.021 C 
ATOM     25  C   UNL d   1      -4.449   2.585  -0.694  0.00  0.00     0.015 C 
ATOM     26  C   UNL d   1      -6.577   0.556  -3.235  0.00  0.00     0.027 C 
ATOM     27  C   UNL d   1      -4.873   1.141   1.248  0.00  0.00     0.020 C 
ATOM     28  C   UNL d   1      -3.408  -1.327   1.823  0.00  0.00     0.021 C 
ATOM     29  C   UNL d   1      -1.618  -3.396   1.189  0.00  0.00     0.021 C 
ATOM     30  C   UNL d   1       3.867  -2.493   1.347  0.00  0.00     0.018 C 
ENDROOT
BRANCH  11  31
ATOM     31  O   UNL d   1       5.346  -0.212   0.286  0.00  0.00    -0.315 OA
BRANCH  31  32
ATOM     32  C   UNL d   1       6.082   0.842   0.832  0.00  0.00     0.259 C 
ATOM     33  O   UNL d   1       5.504   1.862   1.297  0.00  0.00    -0.265 OA
BRANCH  32  34
ATOM     34  C   UNL d   1       7.571   0.777   0.829  0.00  0.00     0.121 C 
BRANCH  34  35
ATOM     35  C   UNL d   1       8.128   1.169  -0.532  0.00  0.00     0.123 C 
BRANCH  35  36
ATOM     36  C   UNL d   1       8.062   2.645  -0.731  0.00  0.00     0.172 C 
ATOM     37  O   UNL d   1       8.962   3.387  -0.258  0.00  0.00    -0.648 OA
ATOM     38  O   UNL d   1       6.993   3.205  -1.418  0.00  0.00    -0.648 OA
ENDBRANCH  35  36
ENDBRANCH  34  35
ENDBRANCH  32  34
ENDBRANCH  31  32
ENDBRANCH  11  31
BRANCH  23  39
ATOM     39  C   UNL d   1      -7.223   1.026  -0.926  0.00  0.00     0.181 C 
ATOM     40  O   UNL d   1      -7.686   0.025  -0.316  0.00  0.00    -0.647 OA
ATOM     41  O   UNL d   1      -7.871   2.250  -0.804  0.00  0.00    -0.647 OA
ENDBRANCH  23  39
TORSDOF 6
