REMARK  3 active torsions:
REMARK  status: ('A' for Active; 'I' for Inactive)
REMARK    1  A    between atoms: O_2  and  C_3 
REMARK    2  A    between atoms: C_3  and  C_5 
REMARK    3  A    between atoms: C_8  and  O_11 
ROOT
ATOM      1  C   UNL d   1      -0.293  -0.008  -0.232  0.00  0.00     0.039 A 
ATOM      2  C   UNL d   1       0.354   0.232   0.988  0.00  0.00     0.020 A 
ATOM      3  C   UNL d   1       1.744   0.121   1.085  0.00  0.00     0.037 A 
ATOM      4  C   UNL d   1       2.497  -0.231  -0.039  0.00  0.00     0.065 A 
ATOM      5  C   UNL d   1       1.859  -0.472  -1.259  0.00  0.00     0.037 A 
ATOM      6  C   UNL d   1       0.469  -0.361  -1.356  0.00  0.00     0.020 A 
ENDROOT
BRANCH   1   7
ATOM      7  C   UNL d   1      -1.757   0.111  -0.329  0.00  0.00     0.292 C 
ATOM      8  O   UNL d   1      -2.338  -0.106  -1.428  0.00  0.00    -0.259 OA
BRANCH   7   9
ATOM      9  O   UNL d   1      -2.499   0.464   0.801  0.00  0.00    -0.323 OA
ATOM     10  C   UNL d   1      -3.913   0.591   0.761  0.00  0.00     0.213 C 
ENDBRANCH   7   9
ENDBRANCH   1   7
BRANCH   4  11
ATOM     11  O   UNL d   1       3.877  -0.342   0.057  0.00  0.00    -0.361 OA
ATOM     12  HO  UNL d   1       4.388  -0.581  -0.707  1.00  0.00     0.217 HD
ENDBRANCH   4  11
TORSDOF 3
