REMARK  8 active torsions:
REMARK  status: ('A' for Active; 'I' for Inactive)
REMARK    1  A    between atoms: C_1  and  C_2 
REMARK    2  A    between atoms: C_1  and  N_7 
REMARK    3  A    between atoms: C_1  and  C_23 
REMARK    4  A    between atoms: C_2  and  S_3 
REMARK    5  A    between atoms: C_17  and  N_18 
REMARK       I    between atoms: N_18  and  C_20 
REMARK    6  A    between atoms: C_25  and  O_26 
REMARK    7  A    between atoms: O_26  and  C_27 
REMARK    8  A    between atoms: C_29  and  O_30 
ROOT
ATOM      1  C   UNL d   1       0.967  -1.137  -0.902  0.00  0.00     0.143 C 
ENDROOT
BRANCH   1   2
ATOM      2  C   UNL d   1       1.374  -2.581  -1.179  0.00  0.00     0.170 C 
BRANCH   2   3
ATOM      3  S   UNL d   1       0.482  -3.235  -2.578  0.00  0.00     0.143 S 
ATOM      4  C   UNL d   1       1.112  -4.851  -2.963  0.00  0.00     0.161 C 
ATOM      5  O   UNL d   1       0.668  -2.334  -3.766  0.00  0.00    -0.228 OA
ATOM      6  O   UNL d   1      -0.981  -3.340  -2.251  0.00  0.00    -0.228 OA
ENDBRANCH   2   3
ENDBRANCH   1   2
BRANCH   1   7
ATOM      7  N   UNL d   1      -0.383  -1.047  -0.348  0.00  0.00    -0.270 N 
ATOM      8  C   UNL d   1      -1.298   0.025  -0.578  0.00  0.00     0.264 A 
ATOM      9  O   UNL d   1      -1.147   0.902  -1.469  0.00  0.00    -0.267 OA
ATOM     10  C   UNL d   1      -2.401  -0.039   0.379  0.00  0.00     0.075 A 
ATOM     11  C   UNL d   1      -2.164  -1.117   1.208  0.00  0.00     0.050 A 
ATOM     12  C   UNL d   1      -3.525   0.776   0.542  0.00  0.00     0.051 A 
ATOM     13  C   UNL d   1      -0.917  -1.740   0.785  0.00  0.00     0.262 A 
ATOM     14  C   UNL d   1      -3.030  -1.449   2.247  0.00  0.00     0.018 A 
ATOM     15  O   UNL d   1      -0.371  -2.733   1.335  0.00  0.00    -0.267 OA
ATOM     16  C   UNL d   1      -4.169  -0.648   2.431  0.00  0.00     0.003 A 
ATOM     17  C   UNL d   1      -4.415   0.454   1.587  0.00  0.00     0.030 A 
BRANCH  12  18
ATOM     18  N   UNL d   1      -3.740   1.891  -0.335  0.00  0.00    -0.327 N 
ATOM     19  C   UNL d   1      -4.837   2.812  -0.293  0.00  0.00     0.218 C 
ATOM     20  C   UNL d   1      -4.898   3.915  -1.286  0.00  0.00     0.117 C 
ATOM     21  O   UNL d   1      -5.749   2.704   0.568  0.00  0.00    -0.274 OA
ATOM     22  HN  UNL d   1      -3.041   2.044  -1.062  1.00  0.00     0.169 HD
ENDBRANCH  12  18
ENDBRANCH   1   7
BRANCH   1  23
ATOM     23  C   UNL d   1       1.957  -0.436  -0.025  0.00  0.00    -0.031 A 
ATOM     24  C   UNL d   1       2.530   0.758  -0.469  0.00  0.00     0.049 A 
ATOM     25  C   UNL d   1       3.448   1.456   0.333  0.00  0.00     0.102 A 
ATOM     26  C   UNL d   1       3.787   0.950   1.598  0.00  0.00     0.101 A 
ATOM     27  C   UNL d   1       3.204  -0.248   2.045  0.00  0.00     0.040 A 
ATOM     28  C   UNL d   1       2.295  -0.935   1.240  0.00  0.00     0.012 A 
BRANCH  25  29
ATOM     29  O   UNL d   1       4.029   2.654  -0.102  0.00  0.00    -0.349 OA
BRANCH  29  30
ATOM     30  C   UNL d   1       3.782   3.222  -1.384  0.00  0.00     0.171 C 
ATOM     31  C   UNL d   1       4.587   2.492  -2.443  0.00  0.00     0.034 C 
ENDBRANCH  29  30
ENDBRANCH  25  29
BRANCH  26  32
ATOM     32  O   UNL d   1       4.701   1.651   2.392  0.00  0.00    -0.353 OA
ATOM     33  C   UNL d   1       5.097   1.209   3.683  0.00  0.00     0.210 C 
ENDBRANCH  26  32
ENDBRANCH   1  23
TORSDOF 8
