REMARK  8 active torsions:
REMARK  status: ('A' for Active; 'I' for Inactive)
REMARK    1  A    between atoms: C_3  and  O_38 
REMARK    2  A    between atoms: C_4  and  N_40 
REMARK    3  A    between atoms: C_6  and  O_8 
REMARK    4  A    between atoms: C_9  and  O_8 
REMARK    5  A    between atoms: C_11  and  C_33 
REMARK    6  A    between atoms: C_11  and  O_36 
REMARK    7  A    between atoms: C_15  and  O_31 
REMARK    8  A    between atoms: C_18  and  O_19 
ROOT
ATOM      1  C   UNL d   1       1.570   0.928  -0.077  0.00  0.00     0.164 C 
ATOM      2  C   UNL d   1       2.038   2.337   0.301  0.00  0.00     0.083 C 
ATOM      3  C   UNL d   1       1.238   2.913   1.471  0.00  0.00     0.124 C 
ATOM      4  C   UNL d   1      -0.241   2.993   1.091  0.00  0.00     0.088 C 
ATOM      5  C   UNL d   1      -0.783   1.740   0.449  0.00  0.00    -0.009 A 
ATOM      6  C   UNL d   1       0.067   0.817  -0.192  0.00  0.00     0.014 A 
ATOM      7  C   UNL d   1      -0.482  -0.274  -0.883  0.00  0.00     0.090 A 
ATOM      8  C   UNL d   1      -1.881  -0.463  -0.938  0.00  0.00     0.066 A 
ATOM      9  C   UNL d   1      -2.735   0.463  -0.288  0.00  0.00     0.066 A 
ATOM     10  C   UNL d   1      -2.173   1.567   0.393  0.00  0.00     0.088 A 
ATOM     11  C   UNL d   1      -4.213   0.263  -0.341  0.00  0.00     0.197 A 
ATOM     12  O   UNL d   1      -4.993   1.070   0.235  0.00  0.00    -0.286 OA
ATOM     13  C   UNL d   1      -4.783  -0.887  -1.067  0.00  0.00     0.029 A 
ATOM     14  C   UNL d   1      -6.173  -1.072  -1.119  0.00  0.00     0.016 A 
ATOM     15  C   UNL d   1      -6.718  -2.159  -1.806  0.00  0.00     0.001 A 
ATOM     16  C   UNL d   1      -5.877  -3.071  -2.446  0.00  0.00     0.001 A 
ATOM     17  C   UNL d   1      -4.492  -2.894  -2.400  0.00  0.00     0.016 A 
ATOM     18  C   UNL d   1      -3.937  -1.804  -1.712  0.00  0.00     0.029 A 
ATOM     19  C   UNL d   1      -2.474  -1.623  -1.666  0.00  0.00     0.197 A 
ATOM     20  O   UNL d   1      -1.735  -2.462  -2.250  0.00  0.00    -0.286 OA
ENDROOT
BRANCH   1  21
ATOM     21  O   UNL d   1       2.048  -0.003   0.853  0.00  0.00    -0.351 OA
BRANCH  21  22
ATOM     22  C   UNL d   1       3.093  -0.668   0.207  0.00  0.00     0.263 C 
ATOM     23  C   UNL d   1       2.904  -2.191   0.354  0.00  0.00     0.096 C 
ATOM     24  C   UNL d   1       4.125  -2.870   0.980  0.00  0.00     0.219 C 
ATOM     25  C   UNL d   1       5.455  -2.342   0.427  0.00  0.00     0.177 C 
ATOM     26  C   UNL d   1       5.315  -0.876  -0.029  0.00  0.00     0.151 C 
ATOM     27  C   UNL d   1       6.623  -0.102   0.015  0.00  0.00     0.042 C 
ATOM     28  O   UNL d   1       4.327  -0.223   0.723  0.00  0.00    -0.354 OA
BRANCH  24  29
ATOM     29  N   UNL d   1       4.043  -4.307   0.789  0.00  0.00    -0.072 N 
ATOM     30  HN3 UNL d   1       4.183  -4.571  -0.186  1.00  0.00     0.274 HD
ATOM     31  HN2 UNL d   1       4.844  -4.793   1.192  1.00  0.00     0.274 HD
ATOM     32  HN1 UNL d   1       3.158  -4.658   1.157  1.00  0.00     0.274 HD
ENDBRANCH  24  29
BRANCH  25  33
ATOM     33  O   UNL d   1       6.434  -2.475   1.415  0.00  0.00    -0.391 OA
ATOM     34  HO  UNL d   1       6.521  -3.378   1.696  1.00  0.00     0.210 HD
ENDBRANCH  25  33
ENDBRANCH  21  22
ENDBRANCH   1  21
BRANCH   7  35
ATOM     35  O   UNL d   1       0.378  -1.168  -1.517  0.00  0.00    -0.359 OA
ATOM     36  HO  UNL d   1       0.006  -1.907  -1.985  1.00  0.00     0.217 HD
ENDBRANCH   7  35
BRANCH   3  37
ATOM     37  C   UNL d   1       1.744   4.300   1.782  0.00  0.00     0.157 C 
ATOM     38  O   UNL d   1       2.208   4.559   2.882  0.00  0.00    -0.295 OA
ATOM     39  C   UNL d   1       1.691   5.381   0.750  0.00  0.00     0.094 C 
ENDBRANCH   3  37
BRANCH   3  40
ATOM     40  O   UNL d   1       1.380   2.094   2.596  0.00  0.00    -0.382 OA
ATOM     41  HO  UNL d   1       0.883   2.452   3.323  1.00  0.00     0.211 HD
ENDBRANCH   3  40
BRANCH  10  42
ATOM     42  O   UNL d   1      -2.990   2.507   1.016  0.00  0.00    -0.359 OA
ATOM     43  HO  UNL d   1      -3.932   2.390   0.978  1.00  0.00     0.217 HD
ENDBRANCH  10  42
TORSDOF 8
