REMARK  2 active torsions:
REMARK  status: ('A' for Active; 'I' for Inactive)
REMARK    1  A    between atoms: OD_1  and  CG_3 
REMARK    2  A    between atoms: CA_8  and  C_10 
ROOT
ATOM      1  CG  HYP d   1      -1.847   0.568   0.213  0.00  0.00     0.146 C 
ATOM      2  CD  HYP d   1      -1.788  -0.593  -0.755  0.00  0.00     0.265 C 
ATOM      3  N   HYP d   1      -0.397  -0.998  -0.879  0.00  0.00    -0.059 N 
ATOM      4  HN1 HYP d   1       0.079  -0.594  -1.686  1.00  0.00     0.278 HD
ATOM      5  HN2 HYP d   1      -0.274  -1.974  -1.146  1.00  0.00     0.278 HD
ATOM      6  CA  HYP d   1       0.218  -0.656   0.395  0.00  0.00     0.288 C 
ATOM      7  CB  HYP d   1      -0.563   0.492   1.002  0.00  0.00     0.077 C 
ENDROOT
BRANCH   6   8
ATOM      8  C   HYP d   1       1.649  -0.280   0.202  0.00  0.00     0.204 C 
ATOM      9  O   HYP d   1       2.634  -0.921   0.942  0.00  0.00    -0.646 OA
ATOM     10  OXT HYP d   1       1.970   0.622  -0.617  0.00  0.00    -0.646 OA
ENDBRANCH   6   8
BRANCH   1  11
ATOM     11  OD  HYP d   1      -1.876   1.765  -0.502  0.00  0.00    -0.394 OA
ATOM     12  HD  HYP d   1      -1.913   2.494   0.106  1.00  0.00     0.210 HD
ENDBRANCH   1  11
TORSDOF 2
