REMARK  4 active torsions:
REMARK  status: ('A' for Active; 'I' for Inactive)
REMARK    1  A    between atoms: C_7  and  C_6 
REMARK    2  A    between atoms: C_11  and  O_12 
REMARK    3  A    between atoms: O_12  and  C_13 
REMARK    4  A    between atoms: C_13  and  C_14 
ROOT
ATOM      1  C   UNL d   1      -0.387  -0.923   1.659  0.00  0.00     0.051 C 
ATOM      2  C   UNL d   1      -0.903  -2.063   2.549  0.00  0.00     0.039 C 
ATOM      3  C   UNL d   1      -1.038  -1.646   4.013  0.00  0.00     0.233 C 
ATOM      4  C   UNL d   1      -0.526   0.669   3.688  0.00  0.00     0.264 C 
ATOM      5  C   UNL d   1       0.285   0.214   2.460  0.00  0.00     0.155 C 
ATOM      6  N   UNL d   1      -1.563  -0.287   4.092  0.00  0.00    -0.073 N 
ATOM      7  HN1 UNL d   1      -1.942  -0.075   5.016  1.00  0.00     0.277 HD
ATOM      8  HN2 UNL d   1      -2.421  -0.175   3.552  1.00  0.00     0.277 HD
ENDROOT
BRANCH   5   9
ATOM      9  O   UNL d   1       0.584   1.313   1.645  0.00  0.00    -0.379 OA
BRANCH   9  10
ATOM     10  C   UNL d   1       1.933   1.171   1.306  0.00  0.00     0.207 C 
BRANCH  10  11
ATOM     11  C   UNL d   1       2.057   0.911  -0.155  0.00  0.00    -0.032 A 
ATOM     12  C   UNL d   1       2.312  -0.397  -0.610  0.00  0.00     0.049 A 
ATOM     13  C   UNL d   1       2.371  -0.599  -1.986  0.00  0.00     0.105 A 
ATOM     14  C   UNL d   1       2.188   0.413  -2.873  0.00  0.00     0.105 A 
ATOM     15  O   UNL d   1       2.603  -1.774  -2.672  0.00  0.00    -0.323 OA
ATOM     16  C   UNL d   1       1.931   1.719  -2.463  0.00  0.00     0.040 A 
ATOM     17  O   UNL d   1       2.298  -0.077  -4.159  0.00  0.00    -0.323 OA
ATOM     18  C   UNL d   1       1.862   1.962  -1.079  0.00  0.00     0.012 A 
ATOM     19  C   UNL d   1       2.563  -1.484  -4.077  0.00  0.00     0.352 A 
ENDBRANCH  10  11
ENDBRANCH   9  10
ENDBRANCH   5   9
BRANCH   1  20
ATOM     20  C   UNL d   1      -1.434  -0.450   0.692  0.00  0.00    -0.051 A 
ATOM     21  C   UNL d   1      -1.195  -0.578  -0.680  0.00  0.00     0.011 A 
ATOM     22  C   UNL d   1      -2.142  -0.131  -1.606  0.00  0.00     0.043 A 
ATOM     23  C   UNL d   1      -3.334   0.447  -1.161  0.00  0.00     0.116 A 
ATOM     24  C   UNL d   1      -3.579   0.578   0.209  0.00  0.00     0.043 A 
ATOM     25  F   UNL d   1      -4.252   0.880  -2.058  0.00  0.00    -0.206 F 
ATOM     26  C   UNL d   1      -2.632   0.132   1.134  0.00  0.00     0.011 A 
ENDBRANCH   1  20
TORSDOF 4
