REMARK  12 active torsions:
REMARK  status: ('A' for Active; 'I' for Inactive)
REMARK    1  A    between atoms: C_2  and  C_3 
REMARK    2  A    between atoms: C_3  and  C_4 
REMARK    3  A    between atoms: C_4  and  N_34 
REMARK    4  A    between atoms: C_5  and  C_6 
REMARK    5  A    between atoms: C_5  and  N_34 
REMARK    6  A    between atoms: C_6  and  C_7 
REMARK    7  A    between atoms: C_9  and  C_10 
REMARK    8  A    between atoms: C_9  and  N_34 
REMARK    9  A    between atoms: C_10  and  C_11 
REMARK   10  A    between atoms: C_11  and  C_12 
REMARK   11  A    between atoms: C_11  and  O_32 
REMARK   12  A    between atoms: C_26  and  C_28 
ROOT
ATOM      1  C   UNL d   1      -0.173  -0.832  -0.779  0.00  0.00    -0.018 A 
ATOM      2  C   UNL d   1      -0.682  -1.945  -0.101  0.00  0.00     0.024 A 
ATOM      3  C   UNL d   1      -2.011  -1.986   0.330  0.00  0.00    -0.003 A 
ATOM      4  C   UNL d   1      -2.862  -0.879   0.084  0.00  0.00    -0.011 A 
ATOM      5  C   UNL d   1      -4.196  -0.932   0.523  0.00  0.00     0.037 A 
ATOM      6  C   UNL d   1      -4.680  -2.056   1.191  0.00  0.00     0.036 A 
ATOM      7  C   UNL d   1      -3.839  -3.143   1.432  0.00  0.00     0.048 A 
ATOM      8  C   UNL d   1      -2.509  -3.116   1.007  0.00  0.00     0.046 A 
ATOM      9 CL   UNL d   1      -1.499  -4.517   1.341  0.00  0.00    -0.083 Cl
ATOM     10 CL   UNL d   1      -6.344  -2.102   1.730  0.00  0.00    -0.084 Cl
ATOM     11  C   UNL d   1      -2.359   0.254  -0.591  0.00  0.00    -0.013 A 
ATOM     12  C   UNL d   1      -1.008   0.276  -1.023  0.00  0.00    -0.016 A 
ATOM     13  C   UNL d   1      -0.521   1.405  -1.698  0.00  0.00     0.014 A 
ATOM     14  C   UNL d   1      -1.348   2.502  -1.940  0.00  0.00     0.017 A 
ATOM     15  C   UNL d   1      -2.676   2.498  -1.501  0.00  0.00     0.048 A 
ATOM     16  C   UNL d   1      -3.178   1.368  -0.844  0.00  0.00     0.029 A 
ENDROOT
BRANCH   1  17
ATOM     17  C   UNL d   1       1.267  -0.826  -1.206  0.00  0.00     0.153 C 
BRANCH  17  18
ATOM     18  C   UNL d   1       2.179  -0.685   0.001  0.00  0.00     0.067 C 
BRANCH  18  19
ATOM     19  C   UNL d   1       3.607  -0.365  -0.450  0.00  0.00     0.275 C 
BRANCH  19  20
ATOM     20  N   UNL d   1       4.548  -0.194   0.665  0.00  0.00     0.088 N 
BRANCH  20  21
ATOM     21  C   UNL d   1       4.602  -1.419   1.454  0.00  0.00     0.272 C 
BRANCH  21  22
ATOM     22  C   UNL d   1       5.970  -2.067   1.326  0.00  0.00     0.030 C 
BRANCH  22  23
ATOM     23  C   UNL d   1       6.131  -2.694  -0.046  0.00  0.00    -0.003 C 
ATOM     24  C   UNL d   1       7.504  -3.324  -0.155  0.00  0.00     0.005 C 
ENDBRANCH  22  23
ENDBRANCH  21  22
ENDBRANCH  20  21
BRANCH  20  25
ATOM     25  C   UNL d   1       4.098   0.885   1.537  0.00  0.00     0.272 C 
BRANCH  25  26
ATOM     26  C   UNL d   1       4.669   2.206   1.060  0.00  0.00     0.030 C 
BRANCH  26  27
ATOM     27  C   UNL d   1       4.177   3.320   1.960  0.00  0.00    -0.003 C 
ATOM     28  C   UNL d   1       4.742   4.641   1.481  0.00  0.00     0.005 C 
ENDBRANCH  26  27
ENDBRANCH  25  26
ENDBRANCH  20  25
ENDBRANCH  19  20
ENDBRANCH  18  19
ENDBRANCH  17  18
BRANCH  17  29
ATOM     29  O   UNL d   1       1.572  -1.993  -1.911  0.00  0.00    -0.391 OA
ATOM     30  HO  UNL d   1       1.002  -2.081  -2.666  1.00  0.00     0.210 HD
ENDBRANCH  17  29
ENDBRANCH   1  17
BRANCH  15  31
ATOM     31  C   UNL d   1      -3.580   3.657  -1.807  0.00  0.00     0.417 C 
ATOM     32  F   UNL d   1      -4.545   3.789  -0.823  0.00  0.00    -0.166 F 
ATOM     33  F   UNL d   1      -4.202   3.442  -3.023  0.00  0.00    -0.166 F 
ATOM     34  F   UNL d   1      -2.854   4.833  -1.873  0.00  0.00    -0.166 F 
ENDBRANCH  15  31
TORSDOF 12
