REMARK  7 active torsions:
REMARK  status: ('A' for Active; 'I' for Inactive)
REMARK    1  A    between atoms: C_2  and  C_3 
REMARK    2  A    between atoms: C_2  and  N_22 
REMARK    3  A    between atoms: C_4  and  C_3 
REMARK    4  A    between atoms: C_4  and  C_5 
REMARK    5  A    between atoms: C_4  and  O_11 
REMARK    6  A    between atoms: O_11  and  C_12 
REMARK    7  A    between atoms: C_15  and  C_18 
ROOT
ATOM      1  C   UNL d   1      -1.592  -0.342   0.088  0.00  0.00     0.163 C 
ENDROOT
BRANCH   1   2
ATOM      2  C   UNL d   1      -2.103   1.073  -0.174  0.00  0.00     0.065 C 
BRANCH   2   3
ATOM      3  C   UNL d   1      -2.838   1.625   1.039  0.00  0.00     0.234 C 
BRANCH   3   4
ATOM      4  N   UNL d   1      -1.907   1.871   2.129  0.00  0.00    -0.079 N 
ATOM      5  C   UNL d   1      -1.490   3.259   2.033  0.00  0.00     0.266 C 
ATOM      6  HN2 UNL d   1      -1.123   1.218   2.139  1.00  0.00     0.276 HD
ATOM      7  HN1 UNL d   1      -2.290   1.631   3.043  1.00  0.00     0.276 HD
ENDBRANCH   3   4
ENDBRANCH   2   3
ENDBRANCH   1   2
BRANCH   1   8
ATOM      8  C   UNL d   1      -2.706  -1.339   0.009  0.00  0.00    -0.029 A 
ATOM      9  C   UNL d   1      -3.117  -2.000   1.171  0.00  0.00     0.010 A 
ATOM     10  C   UNL d   1      -4.160  -2.930   1.117  0.00  0.00     0.001 A 
ATOM     11  C   UNL d   1      -4.795  -3.201  -0.098  0.00  0.00     0.000 A 
ATOM     12  C   UNL d   1      -4.388  -2.541  -1.262  0.00  0.00     0.001 A 
ATOM     13  C   UNL d   1      -3.346  -1.611  -1.210  0.00  0.00     0.010 A 
ENDBRANCH   1   8
BRANCH   1  14
ATOM     14  O   UNL d   1      -0.570  -0.678  -0.845  0.00  0.00    -0.341 OA
BRANCH  14  15
ATOM     15  C   UNL d   1       0.741  -0.200  -0.747  0.00  0.00     0.069 A 
ATOM     16  C   UNL d   1       1.152   0.611   0.323  0.00  0.00     0.037 A 
ATOM     17  C   UNL d   1       2.469   1.075   0.391  0.00  0.00     0.019 A 
ATOM     18  C   UNL d   1       3.388   0.744  -0.615  0.00  0.00     0.048 A 
ATOM     19  C   UNL d   1       2.981  -0.084  -1.670  0.00  0.00     0.019 A 
ATOM     20  C   UNL d   1       1.664  -0.548  -1.738  0.00  0.00     0.037 A 
BRANCH  18  21
ATOM     21  C   UNL d   1       4.815   1.198  -0.514  0.00  0.00     0.417 C 
ATOM     22  F   UNL d   1       5.544   0.262   0.195  0.00  0.00    -0.166 F 
ATOM     23  F   UNL d   1       4.890   2.417   0.137  0.00  0.00    -0.166 F 
ATOM     24  F   UNL d   1       5.367   1.338  -1.776  0.00  0.00    -0.166 F 
ENDBRANCH  18  21
ENDBRANCH  14  15
ENDBRANCH   1  14
TORSDOF 7
