REMARK  7 active torsions:
REMARK  status: ('A' for Active; 'I' for Inactive)
REMARK    1  A    between atoms: C_6  and  O_8 
REMARK    2  A    between atoms: O_8  and  C_9 
REMARK    3  A    between atoms: C_9  and  C_10 
REMARK    4  A    between atoms: C_10  and  C_11 
REMARK    5  A    between atoms: C_10  and  O_16 
REMARK    6  A    between atoms: C_11  and  N_19 
REMARK    7  A    between atoms: C_12  and  N_19 
ROOT
ATOM      1  C   UNL d   1       1.487   0.007  -0.219  0.00  0.00     0.168 C 
ENDROOT
BRANCH   1   2
ATOM      2  C   UNL d   1       0.067   0.127   0.297  0.00  0.00     0.209 C 
BRANCH   2   3
ATOM      3  O   UNL d   1      -0.841  -0.395  -0.665  0.00  0.00    -0.347 OA
BRANCH   3   4
ATOM      4  C   UNL d   1      -2.225  -0.414  -0.467  0.00  0.00     0.091 A 
ATOM      5  C   UNL d   1      -3.060  -0.945  -1.464  0.00  0.00     0.067 A 
ATOM      6  C   UNL d   1      -4.446  -0.970  -1.279  0.00  0.00     0.027 A 
ATOM      7 CL   UNL d   1      -2.388  -1.583  -2.954  0.00  0.00    -0.081 Cl
ATOM      8  C   UNL d   1      -5.008  -0.468  -0.102  0.00  0.00     0.008 A 
ATOM      9  C   UNL d   1      -4.184   0.061   0.894  0.00  0.00    -0.059 A 
ATOM     10  C   UNL d   1      -4.780   0.595   2.146  0.00  0.00     0.048 C 
ATOM     11  C   UNL d   1      -2.799   0.088   0.713  0.00  0.00     0.045 A 
ENDBRANCH   3   4
ENDBRANCH   2   3
ENDBRANCH   1   2
BRANCH   1  12
ATOM     12  C   UNL d   1       2.452   0.417   0.876  0.00  0.00     0.267 C 
BRANCH  12  13
ATOM     13  N   UNL d   1       3.824   0.124   0.466  0.00  0.00    -0.065 N 
ATOM     14  HN2 UNL d   1       3.937  -0.858   0.212  1.00  0.00     0.278 HD
ATOM     15  HN1 UNL d   1       4.043   0.546  -0.437  1.00  0.00     0.278 HD
BRANCH  13  16
ATOM     16  C   UNL d   1       4.788   0.527   1.495  0.00  0.00     0.115 C 
ATOM     17  C   UNL d   1       6.181   0.195   1.003  0.00  0.00     0.045 C 
ATOM     18  C   UNL d   1       4.724   2.026   1.750  0.00  0.00     0.045 C 
ATOM     19  C   UNL d   1       4.553  -0.229   2.794  0.00  0.00     0.045 C 
ENDBRANCH  13  16
ENDBRANCH  12  13
ENDBRANCH   1  12
BRANCH   1  20
ATOM     20  O   UNL d   1       1.654   0.837  -1.329  0.00  0.00    -0.392 OA
ATOM     21  HO  UNL d   1       2.544   0.762  -1.652  1.00  0.00     0.210 HD
ENDBRANCH   1  20
TORSDOF 7
