REMARK  9 active torsions:
REMARK  status: ('A' for Active; 'I' for Inactive)
REMARK       I    between atoms: C_2  and  N_3 
REMARK    1  A    between atoms: C_2  and  O_11 
REMARK    2  A    between atoms: N_3  and  C_5 
REMARK    3  A    between atoms: O_11  and  C_12 
REMARK    4  A    between atoms: C_12  and  C_13 
REMARK    5  A    between atoms: C_13  and  C_14 
REMARK    6  A    between atoms: C_13  and  O_21 
REMARK    7  A    between atoms: C_14  and  N_15 
REMARK    8  A    between atoms: O_21  and  C_22 
REMARK       I    between atoms: C_22  and  N_24 
REMARK    9  A    between atoms: N_24  and  C_26 
ROOT
ATOM      1  C   UNL d   1      -0.618   0.829  -0.433  0.00  0.00     0.186 C 
ENDROOT
BRANCH   1   2
ATOM      2  C   UNL d   1       0.105   1.126   0.878  0.00  0.00     0.215 C 
BRANCH   2   3
ATOM      3  O   UNL d   1       1.418   1.615   0.627  0.00  0.00    -0.301 OA
BRANCH   3   4
ATOM      4  C   UNL d   1       2.461   0.783   0.213  0.00  0.00     0.365 C 
ATOM      5  O   UNL d   1       2.271  -0.457   0.080  0.00  0.00    -0.238 OA
ATOM      6  N   UNL d   1       3.744   1.363  -0.053  0.00  0.00    -0.303 N 
ATOM      7  HN  UNL d   1       3.826   2.371   0.083  1.00  0.00     0.171 HD
BRANCH   6   8
ATOM      8  C   UNL d   1       4.925   0.676  -0.489  0.00  0.00     0.036 A 
ATOM      9  C   UNL d   1       6.094   1.415  -0.700  0.00  0.00     0.029 A 
ATOM     10  C   UNL d   1       7.265   0.781  -1.126  0.00  0.00     0.002 A 
ATOM     11  C   UNL d   1       7.273  -0.599  -1.345  0.00  0.00     0.000 A 
ATOM     12  C   UNL d   1       6.109  -1.345  -1.137  0.00  0.00     0.002 A 
ATOM     13  C   UNL d   1       4.939  -0.710  -0.711  0.00  0.00     0.029 A 
ENDBRANCH   6   8
ENDBRANCH   3   4
ENDBRANCH   2   3
ENDBRANCH   1   2
BRANCH   1  14
ATOM     14  C   UNL d   1      -0.901   2.114  -1.206  0.00  0.00     0.307 C 
BRANCH  14  15
ATOM     15  N   UNL d   1      -1.814   2.975  -0.469  0.00  0.00     0.091 N 
ATOM     16  C   UNL d   1      -1.223   4.311  -0.461  0.00  0.00     0.272 C 
ATOM     17  C   UNL d   1      -2.074   5.279   0.371  0.00  0.00     0.030 C 
ATOM     18  C   UNL d   1      -3.515   4.788   0.540  0.00  0.00     0.003 C 
ATOM     19  C   UNL d   1      -4.020   4.123  -0.739  0.00  0.00     0.030 C 
ATOM     20  C   UNL d   1      -3.066   3.021  -1.232  0.00  0.00     0.272 C 
ENDBRANCH  14  15
ENDBRANCH   1  14
BRANCH   1  21
ATOM     21  O   UNL d   1      -1.833   0.132  -0.183  0.00  0.00    -0.294 OA
BRANCH  21  22
ATOM     22  C   UNL d   1      -1.864  -1.222   0.157  0.00  0.00     0.365 C 
ATOM     23  O   UNL d   1      -0.793  -1.886   0.226  0.00  0.00    -0.238 OA
ATOM     24  N   UNL d   1      -3.130  -1.840   0.419  0.00  0.00    -0.303 N 
ATOM     25  HN  UNL d   1      -3.954  -1.243   0.343  1.00  0.00     0.171 HD
BRANCH  24  26
ATOM     26  C   UNL d   1      -3.361  -3.210   0.777  0.00  0.00     0.036 A 
ATOM     27  C   UNL d   1      -4.676  -3.637   0.992  0.00  0.00     0.029 A 
ATOM     28  C   UNL d   1      -4.941  -4.964   1.342  0.00  0.00     0.002 A 
ATOM     29  C   UNL d   1      -3.890  -5.874   1.479  0.00  0.00     0.000 A 
ATOM     30  C   UNL d   1      -2.573  -5.457   1.267  0.00  0.00     0.002 A 
ATOM     31  C   UNL d   1      -2.309  -4.129   0.917  0.00  0.00     0.029 A 
ENDBRANCH  24  26
ENDBRANCH  21  22
ENDBRANCH   1  21
TORSDOF 9
