REMARK  5 active torsions:
REMARK  status: ('A' for Active; 'I' for Inactive)
REMARK    1  A    between atoms: C_7  and  O_9 
REMARK    2  A    between atoms: O_9  and  C_10 
REMARK    3  A    between atoms: C_10  and  C_12 
REMARK    4  A    between atoms: C_12  and  C_13 
REMARK    5  A    between atoms: C_12  and  O_19 
ROOT
ATOM      1  C   UNL d   1      -0.464  -0.830  -0.768  0.00  0.00     0.292 C 
ATOM      2  O   UNL d   1      -0.488   0.338  -1.248  0.00  0.00    -0.262 OA
ENDROOT
BRANCH   1   3
ATOM      3  O   UNL d   1       0.689  -1.329  -0.151  0.00  0.00    -0.314 OA
BRANCH   3   4
ATOM      4  C   UNL d   1       1.895  -0.583  -0.011  0.00  0.00     0.136 C 
ATOM      5  C   UNL d   1       1.708   0.632   0.932  0.00  0.00     0.068 C 
ATOM      6  C   UNL d   1       2.673   1.789   0.622  0.00  0.00     0.225 C 
ATOM      7  C   UNL d   1       1.994   2.682  -0.409  0.00  0.00     0.038 C 
ATOM      8  N   UNL d   1       3.862   1.235  -0.020  0.00  0.00     0.093 N 
ATOM      9  C   UNL d   1       2.477   2.153  -1.744  0.00  0.00     0.038 C 
ATOM     10  C   UNL d   1       3.398   0.994  -1.384  0.00  0.00     0.225 C 
ATOM     11  C   UNL d   1       2.546  -0.286  -1.386  0.00  0.00     0.068 C 
ATOM     12  C   UNL d   1       4.923   2.237  -0.033  0.00  0.00     0.310 C 
ENDBRANCH   3   4
ENDBRANCH   1   3
BRANCH   1  13
ATOM     13  C   UNL d   1      -1.689  -1.684  -0.817  0.00  0.00     0.250 C 
BRANCH  13  14
ATOM     14  C   UNL d   1      -2.655  -1.306   0.261  0.00  0.00    -0.020 A 
ATOM     15  C   UNL d   1      -3.399  -0.118   0.183  0.00  0.00     0.010 A 
ATOM     16  C   UNL d   1      -4.282   0.226   1.210  0.00  0.00     0.001 A 
ATOM     17  C   UNL d   1      -4.422  -0.612   2.321  0.00  0.00     0.000 A 
ATOM     18  C   UNL d   1      -3.679  -1.793   2.405  0.00  0.00     0.001 A 
ATOM     19  C   UNL d   1      -2.795  -2.138   1.377  0.00  0.00     0.010 A 
ENDBRANCH  13  14
BRANCH  13  20
ATOM     20  O   UNL d   1      -2.294  -1.607  -2.074  0.00  0.00    -0.381 OA
ATOM     21  HO  UNL d   1      -3.072  -2.151  -2.104  1.00  0.00     0.211 HD
ENDBRANCH  13  20
ENDBRANCH   1  13
TORSDOF 5
