REMARK  6 active torsions:
REMARK  status: ('A' for Active; 'I' for Inactive)
REMARK    1  A    between atoms: C_2  and  C_3 
REMARK    2  A    between atoms: C_4  and  C_3 
REMARK    3  A    between atoms: C_20  and  O_31 
REMARK    4  A    between atoms: C_23  and  C_25 
REMARK    5  A    between atoms: C_25  and  C_27 
REMARK    6  A    between atoms: C_27  and  O_28 
ROOT
ATOM      1  C   UNL d   1       2.881   0.195   2.768  0.00  0.00     0.262 C 
ATOM      2  O   UNL d   1       2.541  -1.125   2.351  0.00  0.00    -0.352 OA
ATOM      3  C   UNL d   1       1.781  -0.813   1.249  0.00  0.00     0.168 C 
ATOM      4  C   UNL d   1       1.291  -1.755   0.191  0.00  0.00     0.041 C 
ATOM      5  C   UNL d   1       0.874  -0.734  -0.888  0.00  0.00     0.004 C 
ATOM      6  C   UNL d   1      -0.581  -0.922  -1.332  0.00  0.00    -0.001 C 
ATOM      7  C   UNL d   1      -0.691  -1.135  -2.833  0.00  0.00     0.010 C 
ATOM      8  C   UNL d   1      -2.001  -1.861  -3.130  0.00  0.00     0.036 C 
ATOM      9  C   UNL d   1      -3.152  -1.281  -2.353  0.00  0.00    -0.064 C 
ATOM     10  C   UNL d   1      -4.320  -1.928  -2.393  0.00  0.00     0.058 C 
ATOM     11  C   UNL d   1      -5.466  -1.448  -1.617  0.00  0.00     0.172 C 
ATOM     12  O   UNL d   1      -6.586  -2.011  -1.724  0.00  0.00    -0.289 OA
ATOM     13  C   UNL d   1      -5.279  -0.346  -0.672  0.00  0.00     0.052 C 
ATOM     14  C   UNL d   1      -4.122   0.317  -0.640  0.00  0.00    -0.009 C 
ATOM     15  C   UNL d   1      -2.985   0.046  -1.603  0.00  0.00     0.004 C 
ATOM     16  C   UNL d   1      -1.641   0.077  -0.798  0.00  0.00     0.035 C 
ATOM     17  C   UNL d   1      -1.078   1.493  -0.574  0.00  0.00     0.124 C 
ATOM     18  C   UNL d   1       0.167   1.439   0.289  0.00  0.00     0.045 C 
ATOM     19  C   UNL d   1       1.311   0.688  -0.404  0.00  0.00     0.004 C 
ATOM     20  C   UNL d   1       2.415   0.338   0.612  0.00  0.00     0.160 C 
ATOM     21  O   UNL d   1       2.599   1.150   1.732  0.00  0.00    -0.339 OA
ATOM     22  C   UNL d   1       1.826   1.522  -1.575  0.00  0.00     0.019 C 
ATOM     23  C   UNL d   1      -3.020   1.145  -2.664  0.00  0.00     0.025 C 
ENDROOT
BRANCH  20  24
ATOM     24  C   UNL d   1       3.770   0.018  -0.042  0.00  0.00     0.188 C 
ATOM     25  O   UNL d   1       3.881  -0.909  -0.831  0.00  0.00    -0.292 OA
BRANCH  24  26
ATOM     26  C   UNL d   1       4.970   0.864   0.246  0.00  0.00     0.245 C 
BRANCH  26  27
ATOM     27  O   UNL d   1       5.945   0.100   0.886  0.00  0.00    -0.393 OA
ATOM     28  HO  UNL d   1       6.707   0.637   1.069  1.00  0.00     0.209 HD
ENDBRANCH  26  27
ENDBRANCH  24  26
ENDBRANCH  20  24
BRANCH   1  29
ATOM     29  C   UNL d   1       2.125   0.553   4.038  0.00  0.00     0.060 C 
BRANCH  29  30
ATOM     30  C   UNL d   1       2.670   1.840   4.625  0.00  0.00     0.000 C 
ATOM     31  C   UNL d   1       1.900   2.187   5.882  0.00  0.00     0.005 C 
ENDBRANCH  29  30
ENDBRANCH   1  29
BRANCH  17  32
ATOM     32  O   UNL d   1      -2.023   2.298   0.063  0.00  0.00    -0.395 OA
ATOM     33  HO  UNL d   1      -1.676   3.171   0.201  1.00  0.00     0.210 HD
ENDBRANCH  17  32
TORSDOF 6
