REMARK  7 active torsions:
REMARK  status: ('A' for Active; 'I' for Inactive)
REMARK    1  A    between atoms: C_6  and  C_7 
REMARK    2  A    between atoms: C_7  and  O_8 
REMARK    3  A    between atoms: O_8  and  C_9 
REMARK    4  A    between atoms: C_9  and  C_11 
REMARK    5  A    between atoms: C_11  and  C_12 
REMARK    6  A    between atoms: C_11  and  C_18 
REMARK    7  A    between atoms: C_11  and  O_24 
ROOT
ATOM      1  C   UNL d   1      -0.735   1.165  -0.549  0.00  0.00     0.176 C 
ENDROOT
BRANCH   1   2
ATOM      2  C   UNL d   1       0.495   1.141   0.323  0.00  0.00     0.299 C 
ATOM      3  O   UNL d   1       1.572   1.653  -0.090  0.00  0.00    -0.261 OA
BRANCH   2   4
ATOM      4  O   UNL d   1       0.457   0.472   1.550  0.00  0.00    -0.311 OA
BRANCH   4   5
ATOM      5  C   UNL d   1       1.637   0.100   2.253  0.00  0.00     0.254 C 
BRANCH   5   6
ATOM      6  C   UNL d   1       2.246  -1.108   1.614  0.00  0.00     0.099 C 
ATOM      7  N   UNL d   1       3.463  -1.004   0.849  0.00  0.00    -0.373 N 
ATOM      8  C   UNL d   1       4.275   0.201   0.900  0.00  0.00     0.150 C 
ATOM      9  C   UNL d   1       3.995  -2.157   0.124  0.00  0.00     0.125 C 
ATOM     10  C   UNL d   1       2.879  -3.135  -0.226  0.00  0.00     0.039 C 
ATOM     11  C   UNL d   1       2.106  -3.459   1.045  0.00  0.00     0.122 C 
ATOM     12  N   UNL d   1       1.595  -2.234   1.656  0.00  0.00    -0.378 N 
ATOM     13  HN  UNL d   1       0.695  -2.262   2.134  1.00  0.00     0.160 HD
ENDBRANCH   5   6
ENDBRANCH   4   5
ENDBRANCH   2   4
ENDBRANCH   1   2
BRANCH   1  14
ATOM     14  C   UNL d   1      -0.797  -0.164  -1.280  0.00  0.00    -0.014 A 
ATOM     15  C   UNL d   1      -1.134  -1.341  -0.588  0.00  0.00     0.011 A 
ATOM     16  C   UNL d   1      -1.137  -2.576  -1.243  0.00  0.00     0.001 A 
ATOM     17  C   UNL d   1      -0.794  -2.650  -2.595  0.00  0.00     0.000 A 
ATOM     18  C   UNL d   1      -0.445  -1.491  -3.291  0.00  0.00     0.001 A 
ATOM     19  C   UNL d   1      -0.440  -0.256  -2.636  0.00  0.00     0.011 A 
ENDBRANCH   1  14
BRANCH   1  20
ATOM     20  C   UNL d   1      -2.006   1.387   0.307  0.00  0.00     0.035 C 
ATOM     21  C   UNL d   1      -1.923   2.683   1.140  0.00  0.00     0.008 C 
ATOM     22  C   UNL d   1      -3.307   3.133   1.596  0.00  0.00     0.001 C 
ATOM     23  C   UNL d   1      -4.212   3.458   0.401  0.00  0.00     0.000 C 
ATOM     24  C   UNL d   1      -3.859   2.673  -0.869  0.00  0.00     0.001 C 
ATOM     25  C   UNL d   1      -3.301   1.293  -0.529  0.00  0.00     0.008 C 
ENDBRANCH   1  20
BRANCH   1  26
ATOM     26  O   UNL d   1      -0.629   2.217  -1.470  0.00  0.00    -0.374 OA
ATOM     27  HO  UNL d   1      -1.404   2.231  -2.019  1.00  0.00     0.211 HD
ENDBRANCH   1  26
TORSDOF 7
