REMARK  8 active torsions:
REMARK  status: ('A' for Active; 'I' for Inactive)
REMARK    1  A    between atoms: C_2  and  N_4 
REMARK    2  A    between atoms: N_4  and  C_6 
REMARK    3  A    between atoms: N_4  and  C_24 
REMARK    4  A    between atoms: C_6  and  C_7 
REMARK    5  A    between atoms: C_7  and  C_8 
REMARK    6  A    between atoms: C_8  and  C_9 
REMARK    7  A    between atoms: C_8  and  C_12 
REMARK    8  A    between atoms: C_8  and  C_18 
ROOT
ATOM      1  C   UNL d   1      -0.833   0.444   0.511  0.00  0.00     0.094 C 
ENDROOT
BRANCH   1   2
ATOM      2  C   UNL d   1       0.637   0.346   0.040  0.00  0.00     0.057 C 
BRANCH   2   3
ATOM      3  C   UNL d   1       1.415  -0.810   0.690  0.00  0.00     0.240 C 
BRANCH   3   4
ATOM      4  N   UNL d   1       2.778  -0.995   0.158  0.00  0.00    -0.064 N 
ATOM      5  C   UNL d   1       3.409  -1.920   1.103  0.00  0.00     0.273 C 
BRANCH   4   6
ATOM      6  C   UNL d   1       2.664  -1.652  -1.177  0.00  0.00     0.182 C 
ATOM      7  C   UNL d   1       3.925  -2.385  -1.635  0.00  0.00     0.040 C 
ATOM      8  C   UNL d   1       2.212  -0.708  -2.289  0.00  0.00     0.040 C 
ENDBRANCH   4   6
BRANCH   4   9
ATOM      9  C   UNL d   1       3.534   0.292   0.126  0.00  0.00     0.182 C 
ATOM     10  C   UNL d   1       3.540   1.020   1.470  0.00  0.00     0.040 C 
ATOM     11  C   UNL d   1       4.974   0.142  -0.354  0.00  0.00     0.040 C 
ENDBRANCH   4   9
ENDBRANCH   3   4
ENDBRANCH   2   3
ENDBRANCH   1   2
BRANCH   1  12
ATOM     12  C   UNL d   1      -0.896   0.721   2.008  0.00  0.00     0.249 C 
ATOM     13  N   UNL d   1      -2.131   0.596   2.710  0.00  0.00    -0.061 NA
ATOM     14  O   UNL d   1       0.114   1.148   2.629  0.00  0.00    -0.275 OA
ENDBRANCH   1  12
BRANCH   1  15
ATOM     15  C   UNL d   1      -1.518   1.624  -0.177  0.00  0.00    -0.036 A 
ATOM     16  C   UNL d   1      -2.923   1.699  -0.225  0.00  0.00     0.009 A 
ATOM     17  C   UNL d   1      -3.562   2.803  -0.796  0.00  0.00     0.001 A 
ATOM     18  C   UNL d   1      -2.806   3.857  -1.313  0.00  0.00     0.000 A 
ATOM     19  C   UNL d   1      -1.412   3.811  -1.252  0.00  0.00     0.001 A 
ATOM     20  C   UNL d   1      -0.773   2.708  -0.680  0.00  0.00     0.009 A 
ENDBRANCH   1  15
BRANCH   1  21
ATOM     21  C   UNL d   1      -1.517  -0.874   0.131  0.00  0.00    -0.036 A 
ATOM     22  C   UNL d   1      -1.723  -1.895   1.077  0.00  0.00     0.009 A 
ATOM     23  C   UNL d   1      -2.276  -3.121   0.697  0.00  0.00     0.001 A 
ATOM     24  C   UNL d   1      -2.611  -3.352  -0.638  0.00  0.00     0.000 A 
ATOM     25  C   UNL d   1      -2.387  -2.361  -1.596  0.00  0.00     0.001 A 
ATOM     26  C   UNL d   1      -1.834  -1.135  -1.216  0.00  0.00     0.009 A 
ENDBRANCH   1  21
TORSDOF 8
