REMARK  9 active torsions:
REMARK  status: ('A' for Active; 'I' for Inactive)
REMARK    1  A    between atoms: C_3  and  S_9 
REMARK    2  A    between atoms: S_9  and  C_10 
REMARK    3  A    between atoms: C_10  and  C_11 
REMARK    4  A    between atoms: C_12  and  C_31 
REMARK    5  A    between atoms: C_15  and  N_18 
REMARK    6  A    between atoms: C_15  and  O_27 
REMARK       I    between atoms: N_18  and  C_20 
REMARK    7  A    between atoms: C_20  and  C_22 
REMARK    8  A    between atoms: C_22  and  S_23 
REMARK    9  A    between atoms: S_23  and  C_24 
ROOT
ATOM      1  C   UNL d   1       5.881   0.361  -2.449  0.00  0.00     0.197 C 
ATOM      2  C   UNL d   1       6.311   1.740  -2.691  0.00  0.00     0.069 C 
ATOM      3  N   UNL d   1       6.650   2.829  -2.882  0.00  0.00    -0.197 NA
ENDROOT
BRANCH   1   4
ATOM      4  S   UNL d   1       6.854  -0.366  -1.095  0.00  0.00    -0.146 SA
BRANCH   4   5
ATOM      5  C   UNL d   1       5.856   0.423   0.207  0.00  0.00     0.177 C 
BRANCH   5   6
ATOM      6  C   UNL d   1       4.613  -0.359   0.445  0.00  0.00     0.229 C 
ATOM      7  N   UNL d   1       3.416  -0.014  -0.260  0.00  0.00    -0.318 N 
ATOM      8  HN  UNL d   1       3.444   0.788  -0.889  1.00  0.00     0.166 HD
ATOM      9  O   UNL d   1       4.634  -1.338   1.238  0.00  0.00    -0.273 OA
BRANCH   7  10
ATOM     10  C   UNL d   1       2.154  -0.747  -0.130  0.00  0.00     0.250 A 
ATOM     11  C   UNL d   1       1.044  -0.046  -0.742  0.00  0.00     0.221 A 
ATOM     12  N   UNL d   1       0.384   0.178   0.522  0.00  0.00    -0.288 N 
ATOM     13  S   UNL d   1      -0.103  -1.027  -1.772  0.00  0.00    -0.133 SA
ATOM     14  C   UNL d   1      -0.975   0.512   0.824  0.00  0.00     0.119 C 
ATOM     15  C   UNL d   1       1.516  -0.493   1.201  0.00  0.00     0.285 A 
ATOM     16  C   UNL d   1      -1.864   0.465  -0.199  0.00  0.00    -0.027 C 
ATOM     17  C   UNL d   1      -1.395   0.264  -1.621  0.00  0.00     0.113 C 
ATOM     18  O   UNL d   1       1.804  -0.778   2.393  0.00  0.00    -0.267 OA
BRANCH  14  19
ATOM     19  C   UNL d   1      -1.353   0.812   2.229  0.00  0.00     0.227 C 
ATOM     20  O   UNL d   1      -0.504   0.679   3.148  0.00  0.00    -0.643 OA
ATOM     21  O   UNL d   1      -2.619   1.283   2.559  0.00  0.00    -0.643 OA
ENDBRANCH  14  19
BRANCH  16  22
ATOM     22  C   UNL d   1      -3.338   0.615  -0.011  0.00  0.00     0.120 C 
BRANCH  22  23
ATOM     23  S   UNL d   1      -4.056  -0.955   0.559  0.00  0.00    -0.087 SA
BRANCH  23  24
ATOM     24  C   UNL d   1      -5.684  -0.231   0.726  0.00  0.00     0.175 A 
ATOM     25  N   UNL d   1      -6.617  -0.186  -0.234  0.00  0.00    -0.262 N 
ATOM     26  C   UNL d   1      -6.536  -0.691  -1.593  0.00  0.00     0.181 C 
ATOM     27  N   UNL d   1      -7.664   0.422   0.289  0.00  0.00    -0.223 N 
ATOM     28  N   UNL d   1      -7.379   0.743   1.544  0.00  0.00    -0.005 NA
ATOM     29  HN  UNL d   1      -8.544   0.614  -0.190  1.00  0.00     0.206 HD
ATOM     30  N   UNL d   1      -6.148   0.347   1.848  0.00  0.00    -0.261 N 
ATOM     31  HN  UNL d   1      -5.662   0.458   2.738  1.00  0.00     0.186 HD
ENDBRANCH  23  24
ENDBRANCH  22  23
ENDBRANCH  16  22
BRANCH  10  32
ATOM     32  O   UNL d   1       2.255  -2.133  -0.399  0.00  0.00    -0.355 OA
ATOM     33  C   UNL d   1       2.864  -2.310  -1.653  0.00  0.00     0.205 C 
ENDBRANCH  10  32
ENDBRANCH   7  10
ENDBRANCH   5   6
ENDBRANCH   4   5
ENDBRANCH   1   4
TORSDOF 9
