REMARK  3 active torsions:
REMARK  status: ('A' for Active; 'I' for Inactive)
REMARK    1  A    between atoms: C_4  and  O_5 
REMARK    2  A    between atoms: C_17  and  O_18 
REMARK    3  A    between atoms: O_18  and  C_19 
ROOT
ATOM      1  C   UNL d   1      -2.897  -1.053  -0.661  0.00  0.00     0.002 C 
ATOM      2  C   UNL d   1      -3.529  -1.875  -1.764  0.00  0.00     0.010 C 
ATOM      3  C   UNL d   1      -5.023  -1.556  -1.647  0.00  0.00     0.052 C 
ATOM      4  C   UNL d   1      -5.163  -0.376  -0.675  0.00  0.00     0.128 C 
ATOM      5  C   UNL d   1      -5.668  -0.885   0.613  0.00  0.00    -0.078 C 
ATOM      6  C   UNL d   1      -6.081  -1.302   1.667  0.00  0.00     0.015 C 
ATOM      7  C   UNL d   1      -3.740   0.206  -0.570  0.00  0.00     0.003 C 
ATOM      8  C   UNL d   1      -3.461   1.148  -1.756  0.00  0.00     0.020 C 
ATOM      9  C   UNL d   1      -3.387   0.934   0.737  0.00  0.00     0.014 C 
ATOM     10  C   UNL d   1      -1.878   1.244   0.794  0.00  0.00     0.010 C 
ATOM     11  C   UNL d   1      -1.035  -0.030   0.584  0.00  0.00     0.023 C 
ATOM     12  C   UNL d   1       0.454   0.212   0.691  0.00  0.00    -0.047 A 
ATOM     13  C   UNL d   1       0.951   1.129   1.628  0.00  0.00     0.011 A 
ATOM     14  C   UNL d   1       2.327   1.292   1.801  0.00  0.00     0.037 A 
ATOM     15  C   UNL d   1       3.228   0.530   1.054  0.00  0.00     0.069 A 
ATOM     16  C   UNL d   1       2.739  -0.412   0.137  0.00  0.00     0.044 A 
ATOM     17  C   UNL d   1       1.364  -0.592  -0.036  0.00  0.00    -0.049 A 
ATOM     18  C   UNL d   1       0.898  -1.585  -1.067  0.00  0.00     0.039 C 
ATOM     19  C   UNL d   1      -0.561  -1.990  -0.873  0.00  0.00     0.010 C 
ATOM     20  C   UNL d   1      -1.408  -0.735  -0.733  0.00  0.00    -0.001 C 
ENDROOT
BRANCH   4  21
ATOM     21  O   UNL d   1      -6.073   0.557  -1.181  0.00  0.00    -0.377 OA
ATOM     22  HO  UNL d   1      -6.160   1.288  -0.580  1.00  0.00     0.211 HD
ENDBRANCH   4  21
BRANCH  15  23
ATOM     23  O   UNL d   1       4.601   0.723   1.247  0.00  0.00    -0.346 OA
BRANCH  23  24
ATOM     24  C   UNL d   1       5.598   0.028   0.506  0.00  0.00     0.129 C 
ATOM     25  C   UNL d   1       5.747   0.641  -0.879  0.00  0.00     0.032 C 
ATOM     26  C   UNL d   1       7.128   1.259  -0.934  0.00  0.00     0.002 C 
ATOM     27  C   UNL d   1       7.933   0.536   0.119  0.00  0.00     0.002 C 
ATOM     28  C   UNL d   1       6.938   0.181   1.200  0.00  0.00     0.032 C 
ENDBRANCH  23  24
ENDBRANCH  15  23
TORSDOF 3
