REMARK  8 active torsions:
REMARK  status: ('A' for Active; 'I' for Inactive)
REMARK    1  A    between atoms: C_16  and  O_36 
REMARK    2  A    between atoms: C_19  and  C_20 
REMARK    3  A    between atoms: C_19  and  O_27 
REMARK    4  A    between atoms: C_20  and  C_22 
REMARK    5  A    between atoms: C_22  and  O_23 
REMARK    6  A    between atoms: O_23  and  C_24 
REMARK    7  A    between atoms: O_27  and  C_28 
REMARK    8  A    between atoms: C_28  and  C_30 
ROOT
ATOM      1  C   UNL d   1      -0.959   2.261   2.595  0.00  0.00     0.013 C 
ATOM      2  C   UNL d   1      -0.562   2.424   1.135  0.00  0.00     0.026 C 
ATOM      3  C   UNL d   1       0.940   2.610   1.008  0.00  0.00     0.013 C 
ATOM      4  C   UNL d   1       1.364   1.972  -0.312  0.00  0.00     0.005 C 
ATOM      5  C   UNL d   1       2.382   0.861  -0.061  0.00  0.00     0.035 C 
ATOM      6  C   UNL d   1       3.632   1.284   0.699  0.00  0.00     0.013 C 
ATOM      7  C   UNL d   1       4.279   0.023   1.272  0.00  0.00     0.036 C 
ATOM      8  C   UNL d   1       4.323  -1.093   0.260  0.00  0.00    -0.061 C 
ATOM      9  C   UNL d   1       4.681  -2.309   0.682  0.00  0.00     0.058 C 
ATOM     10  C   UNL d   1       4.721  -3.443  -0.244  0.00  0.00     0.172 C 
ATOM     11  O   UNL d   1       5.108  -4.572   0.154  0.00  0.00    -0.289 OA
ATOM     12  C   UNL d   1       4.275  -3.263  -1.626  0.00  0.00     0.052 C 
ATOM     13  C   UNL d   1       3.927  -2.053  -2.067  0.00  0.00    -0.006 C 
ATOM     14  C   UNL d   1       4.015  -0.799  -1.213  0.00  0.00     0.036 C 
ATOM     15  C   UNL d   1       2.714   0.091  -1.354  0.00  0.00     0.147 C 
ATOM     16  C   UNL d   1       1.444  -0.711  -1.675  0.00  0.00     0.160 C 
ATOM     17  C   UNL d   1       0.217   0.194  -1.887  0.00  0.00     0.048 C 
ATOM     18  C   UNL d   1       0.071   1.446  -0.974  0.00  0.00     0.002 C 
ATOM     19  C   UNL d   1      -0.957   1.274   0.183  0.00  0.00     0.144 C 
ATOM     20  C   UNL d   1      -0.382   2.563  -1.912  0.00  0.00     0.019 C 
ATOM     21  F   UNL d   1       2.898   1.000  -2.393  0.00  0.00    -0.238 F 
ATOM     22  C   UNL d   1       5.226  -0.034  -1.744  0.00  0.00     0.028 C 
ENDROOT
BRANCH  19  23
ATOM     23  C   UNL d   1      -0.835  -0.106   0.836  0.00  0.00     0.187 C 
ATOM     24  O   UNL d   1       0.050  -0.335   1.648  0.00  0.00    -0.292 OA
BRANCH  23  25
ATOM     25  C   UNL d   1      -1.750  -1.222   0.439  0.00  0.00     0.260 C 
BRANCH  25  26
ATOM     26  O   UNL d   1      -2.552  -1.604   1.546  0.00  0.00    -0.314 OA
BRANCH  26  27
ATOM     27  C   UNL d   1      -3.552  -2.568   1.430  0.00  0.00     0.255 C 
ATOM     28  O   UNL d   1      -3.779  -3.138   0.329  0.00  0.00    -0.266 OA
ATOM     29  C   UNL d   1      -4.365  -2.926   2.622  0.00  0.00     0.126 C 
ENDBRANCH  26  27
ENDBRANCH  25  26
ENDBRANCH  23  25
ENDBRANCH  19  23
BRANCH  19  30
ATOM     30  O   UNL d   1      -2.286   1.477  -0.330  0.00  0.00    -0.295 OA
BRANCH  30  31
ATOM     31  C   UNL d   1      -3.472   1.475   0.419  0.00  0.00     0.318 C 
ATOM     32  O   UNL d   1      -3.463   1.239   1.657  0.00  0.00    -0.257 OA
BRANCH  31  33
ATOM     33  C   UNL d   1      -4.742   1.733  -0.263  0.00  0.00     0.149 A 
ATOM     34  O   UNL d   1      -4.842   1.980  -1.544  0.00  0.00    -0.317 OA
ATOM     35  C   UNL d   1      -6.104   2.165  -1.844  0.00  0.00     0.143 A 
ATOM     36  C   UNL d   1      -6.867   2.031  -0.696  0.00  0.00     0.027 A 
ATOM     37  C   UNL d   1      -5.986   1.750   0.334  0.00  0.00     0.045 A 
ENDBRANCH  31  33
ENDBRANCH  30  31
ENDBRANCH  19  30
BRANCH  16  38
ATOM     38  O   UNL d   1       1.186  -1.676  -0.698  0.00  0.00    -0.392 OA
ATOM     39  HO  UNL d   1       0.401  -2.172  -0.897  1.00  0.00     0.210 HD
ENDBRANCH  16  38
TORSDOF 8
