REMARK  6 active torsions:
REMARK  status: ('A' for Active; 'I' for Inactive)
REMARK    1  A    between atoms: O_2  and  C_3 
REMARK    2  A    between atoms: C_3  and  C_4 
REMARK    3  A    between atoms: C_4  and  C_5 
REMARK    4  A    between atoms: C_5  and  N_6 
REMARK    5  A    between atoms: C_9  and  N_12 
REMARK       I    between atoms: N_12  and  C_14 
REMARK    6  A    between atoms: C_14  and  C_16 
ROOT
ATOM      1  N   UNL d   1      -0.635  -1.328   0.018  0.00  0.00    -0.352 N 
ATOM      2  HN  UNL d   1      -1.491  -1.882   0.055  1.00  0.00     0.163 HD
ATOM      3  C   UNL d   1      -0.773   0.096  -0.083  0.00  0.00     0.254 C 
ATOM      4  O   UNL d   1       0.254   0.824  -0.162  0.00  0.00    -0.268 OA
ENDROOT
BRANCH   1   5
ATOM      5  C   UNL d   1       0.635  -2.046   0.071  0.00  0.00     0.088 C 
ATOM      6  C   UNL d   1       1.397  -1.745   1.367  0.00  0.00     0.055 C 
ATOM      7  C   UNL d   1       2.548  -0.761   1.128  0.00  0.00     0.274 C 
ATOM      8  N   UNL d   1       3.504  -1.211   0.097  0.00  0.00     0.088 N 
ATOM      9  C   UNL d   1       2.928  -2.119  -0.908  0.00  0.00     0.274 C 
ATOM     10  C   UNL d   1       1.463  -1.805  -1.192  0.00  0.00     0.055 C 
BRANCH   8  11
ATOM     11  C   UNL d   1       4.568  -1.943   0.768  0.00  0.00     0.274 C 
BRANCH  11  12
ATOM     12  C   UNL d   1       5.736  -1.020   1.073  0.00  0.00     0.056 C 
BRANCH  12  13
ATOM     13  C   UNL d   1       6.462  -0.652  -0.208  0.00  0.00     0.168 C 
BRANCH  13  14
ATOM     14  O   UNL d   1       7.524   0.201   0.088  0.00  0.00    -0.396 OA
ATOM     15  C   UNL d   1       8.085   0.504  -1.151  0.00  0.00     0.201 C 
ENDBRANCH  13  14
ENDBRANCH  12  13
ENDBRANCH  11  12
ENDBRANCH   8  11
ENDBRANCH   1   5
BRANCH   3  16
ATOM     16  C   UNL d   1      -2.112   0.719  -0.100  0.00  0.00     0.067 A 
ATOM     17  C   UNL d   1      -3.296  -0.032  -0.018  0.00  0.00     0.092 A 
ATOM     18  O   UNL d   1      -3.409  -1.402   0.087  0.00  0.00    -0.349 OA
ATOM     19  C   UNL d   1      -4.527   0.559  -0.034  0.00  0.00     0.004 A 
ATOM     20  C   UNL d   1      -4.782  -1.785   0.146  0.00  0.00     0.180 A 
ATOM     21  C   UNL d   1      -5.590  -0.474   0.066  0.00  0.00     0.070 A 
ATOM     22  C   UNL d   1      -4.669   1.944  -0.135  0.00  0.00     0.077 A 
ATOM     23  N   UNL d   1      -5.963   2.541  -0.151  0.00  0.00    -0.100 NA
ATOM     24  C   UNL d   1      -3.505   2.732  -0.219  0.00  0.00     0.059 A 
ATOM     25 CL   UNL d   1      -3.600   4.479  -0.348  0.00  0.00    -0.082 Cl
ATOM     26  C   UNL d   1      -2.239   2.118  -0.202  0.00  0.00     0.045 A 
ENDBRANCH   3  16
TORSDOF 6
