REMARK  4 active torsions:
REMARK  status: ('A' for Active; 'I' for Inactive)
REMARK    1  A    between atoms: C_7  and  C_16 
REMARK    2  A    between atoms: C_16  and  O_17 
REMARK    3  A    between atoms: O_17  and  S_18 
REMARK    4  A    between atoms: S_18  and  N_21 
ROOT
ATOM      1  C   UNL d   1      -4.598  -1.246   0.604  0.00  0.00     0.078 C 
ATOM      2  C   UNL d   1      -3.272  -0.895   1.253  0.00  0.00     0.158 C 
ATOM      3  O   UNL d   1      -2.314  -1.892   0.933  0.00  0.00    -0.346 OA
ATOM      4  C   UNL d   1      -1.212  -1.139   0.564  0.00  0.00     0.180 C 
ATOM      5  C   UNL d   1      -0.275  -1.782  -0.455  0.00  0.00     0.206 C 
ATOM      6  O   UNL d   1       0.311  -0.833  -1.351  0.00  0.00    -0.348 OA
ATOM      7  C   UNL d   1       0.566   0.447  -0.754  0.00  0.00     0.219 C 
ATOM      8  C   UNL d   1      -0.687   1.088  -0.151  0.00  0.00     0.221 C 
ATOM      9  C   UNL d   1      -1.795   0.057  -0.051  0.00  0.00     0.191 C 
ATOM     10  O   UNL d   1      -2.845   0.379   0.795  0.00  0.00    -0.345 OA
ATOM     11  O   UNL d   1      -1.072   2.108  -1.014  0.00  0.00    -0.342 OA
ATOM     12  C   UNL d   1       0.043   2.354  -1.835  0.00  0.00     0.161 C 
ATOM     13  O   UNL d   1       1.000   1.323  -1.749  0.00  0.00    -0.315 OA
ATOM     14  C   UNL d   1      -0.423   2.471  -3.273  0.00  0.00     0.078 C 
ATOM     15  C   UNL d   1       0.686   3.669  -1.431  0.00  0.00     0.078 C 
ATOM     16  C   UNL d   1      -3.468  -0.847   2.758  0.00  0.00     0.078 C 
ENDROOT
BRANCH   7  17
ATOM     17  C   UNL d   1       1.651   0.344   0.318  0.00  0.00     0.263 C 
BRANCH  17  18
ATOM     18  O   UNL d   1       2.821  -0.198  -0.222  0.00  0.00    -0.254 OA
BRANCH  18  19
ATOM     19  S   UNL d   1       3.511  -1.119   1.011  0.00  0.00     0.355 S 
ATOM     20  O   UNL d   1       2.566  -2.208   1.435  0.00  0.00    -0.176 OA
ATOM     21  O   UNL d   1       3.837  -0.244   2.190  0.00  0.00    -0.176 OA
BRANCH  19  22
ATOM     22  N   UNL d   1       4.968  -1.837   0.424  0.00  0.00    -0.306 N 
ATOM     23  HN2 UNL d   1       5.338  -1.714  -0.519  1.00  0.00     0.171 HD
ATOM     24  HN1 UNL d   1       5.385  -2.393   1.170  1.00  0.00     0.171 HD
ENDBRANCH  19  22
ENDBRANCH  18  19
ENDBRANCH  17  18
ENDBRANCH   7  17
TORSDOF 4
