REMARK  5 active torsions:
REMARK  status: ('A' for Active; 'I' for Inactive)
REMARK    1  A    between atoms: C_2  and  O_3 
REMARK    2  A    between atoms: O_3  and  C_4 
REMARK    3  A    between atoms: C_4  and  C_5 
REMARK    4  A    between atoms: C_5  and  N_6 
REMARK    5  A    between atoms: C_7  and  N_16 
ROOT
ATOM      1  N   UNL d   1      -0.488   0.040   1.086  0.00  0.00    -0.179 N 
ATOM      2  C   UNL d   1      -0.033   0.308  -0.171  0.00  0.00     0.683 A 
ATOM      3  N   UNL d   1      -0.667   1.359  -0.759  0.00  0.00    -0.189 N 
ATOM      4  HN  UNL d   1      -0.514   1.755  -1.686  1.00  0.00     0.184 HD
ATOM      5  C   UNL d   1      -1.546   1.748   0.182  0.00  0.00     0.076 A 
ATOM      6  C   UNL d   1      -2.473   2.784   0.098  0.00  0.00     0.032 A 
ATOM      7  C   UNL d   1      -3.315   2.992   1.207  0.00  0.00     0.002 A 
ATOM      8  C   UNL d   1      -3.214   2.168   2.351  0.00  0.00     0.002 A 
ATOM      9  C   UNL d   1      -2.269   1.128   2.402  0.00  0.00     0.032 A 
ATOM     10  C   UNL d   1      -1.446   0.957   1.289  0.00  0.00     0.079 A 
ENDROOT
BRANCH   2  11
ATOM     11  N   UNL d   1       0.997  -0.439  -0.843  0.00  0.00    -0.216 N 
ATOM     12  C   UNL d   1       1.166  -0.247  -2.291  0.00  0.00     0.143 C 
ATOM     13  C   UNL d   1       2.443  -0.904  -2.827  0.00  0.00     0.050 C 
ATOM     14  C   UNL d   1       3.728  -0.240  -2.308  0.00  0.00     0.273 C 
ATOM     15  N   UNL d   1       3.551   0.409  -1.008  0.00  0.00     0.085 N 
ATOM     16  C   UNL d   1       4.809   1.058  -0.692  0.00  0.00     0.309 C 
ATOM     17  C   UNL d   1       3.321  -0.591   0.036  0.00  0.00     0.292 C 
ATOM     18  C   UNL d   1       1.945  -1.261  -0.084  0.00  0.00     0.171 C 
ENDBRANCH   2  11
BRANCH   1  19
ATOM     19  C   UNL d   1      -0.152  -1.072   1.970  0.00  0.00     0.174 C 
BRANCH  19  20
ATOM     20  C   UNL d   1      -1.125  -2.224   1.767  0.00  0.00     0.188 C 
BRANCH  20  21
ATOM     21  O   UNL d   1      -0.954  -2.777   0.497  0.00  0.00    -0.390 OA
BRANCH  21  22
ATOM     22  C   UNL d   1      -2.215  -2.705  -0.094  0.00  0.00     0.163 C 
ATOM     23  C   UNL d   1      -2.062  -2.490  -1.585  0.00  0.00     0.033 C 
ENDBRANCH  21  22
ENDBRANCH  20  21
ENDBRANCH  19  20
ENDBRANCH   1  19
TORSDOF 5
