REMARK  5 active torsions:
REMARK  status: ('A' for Active; 'I' for Inactive)
REMARK    1  A    between atoms: N_2  and  C_4 
REMARK    2  A    between atoms: N_9  and  C_10 
REMARK    3  A    between atoms: C_10  and  C_11 
REMARK       I    between atoms: C_11  and  N_13 
REMARK    4  A    between atoms: N_13  and  C_15 
REMARK    5  A    between atoms: C_15  and  C_16 
ROOT
ATOM      1  C   UNL d   1       0.000  -0.070  -0.211  0.00  0.00     0.236 C 
ATOM      2  O   UNL d   1       0.040   1.050   0.365  0.00  0.00    -0.272 OA
ATOM      3  N   UNL d   1       0.951  -1.088   0.108  0.00  0.00    -0.355 N 
ATOM      4  HN  UNL d   1       0.861  -1.998  -0.344  1.00  0.00     0.162 HD
ENDROOT
BRANCH   1   5
ATOM      5  C   UNL d   1      -1.076  -0.352  -1.202  0.00  0.00     0.234 C 
BRANCH   5   6
ATOM      6  N   UNL d   1      -2.221  -0.962  -0.541  0.00  0.00    -0.314 N 
ATOM      7  C   UNL d   1      -2.351  -2.269  -0.259  0.00  0.00     0.112 A 
ATOM      8  C   UNL d   1      -3.549  -2.434   0.416  0.00  0.00     0.108 A 
ATOM      9  N   UNL d   1      -4.154  -1.234   0.555  0.00  0.00    -0.332 N 
ATOM     10  C   UNL d   1      -3.317  -0.362  -0.036  0.00  0.00     0.252 A 
ATOM     11  HN  UNL d   1      -5.047  -1.035   1.008  1.00  0.00     0.168 HD
BRANCH  10  12
ATOM     12  N   UNL d   1      -3.591   1.043  -0.110  0.00  0.00    -0.079 N 
ATOM     13  O   UNL d   1      -4.728   1.547   0.476  0.00  0.00    -0.529 OA
ATOM     14  O   UNL d   1      -2.830   1.817  -0.725  0.00  0.00    -0.529 OA
ENDBRANCH  10  12
ENDBRANCH   5   6
ENDBRANCH   1   5
BRANCH   3  15
ATOM     15  C   UNL d   1       2.042  -0.882   1.050  0.00  0.00     0.161 C 
BRANCH  15  16
ATOM     16  C   UNL d   1       3.125  -0.069   0.425  0.00  0.00    -0.041 A 
ATOM     17  C   UNL d   1       4.002  -0.655  -0.495  0.00  0.00     0.009 A 
ATOM     18  C   UNL d   1       5.008   0.113  -1.090  0.00  0.00     0.001 A 
ATOM     19  C   UNL d   1       5.137   1.467  -0.767  0.00  0.00     0.000 A 
ATOM     20  C   UNL d   1       4.260   2.054   0.150  0.00  0.00     0.001 A 
ATOM     21  C   UNL d   1       3.254   1.287   0.745  0.00  0.00     0.009 A 
ENDBRANCH  15  16
ENDBRANCH   3  15
TORSDOF 5
