REMARK  6 active torsions:
REMARK  status: ('A' for Active; 'I' for Inactive)
REMARK    1  A    between atoms: C_18  and  O_19 
REMARK    2  A    between atoms: C_24  and  O_25 
REMARK    3  A    between atoms: C_24  and  C_27 
REMARK    4  A    between atoms: C_27  and  C_29 
REMARK    5  A    between atoms: C_29  and  O_30 
REMARK    6  A    between atoms: O_30  and  P_31 
ROOT
ATOM      1  C   UNL d   1       2.978  -2.547  -1.100  0.00  0.00     0.013 C 
ATOM      2  C   UNL d   1       2.365  -1.160  -1.251  0.00  0.00     0.025 C 
ATOM      3  C   UNL d   1       0.941  -1.326  -1.796  0.00  0.00     0.013 C 
ATOM      4  C   UNL d   1       0.077  -0.551  -0.821  0.00  0.00     0.005 C 
ATOM      5  C   UNL d   1      -1.411  -0.863  -0.703  0.00  0.00     0.035 C 
ATOM      6  C   UNL d   1      -2.097  -1.089  -2.063  0.00  0.00     0.013 C 
ATOM      7  C   UNL d   1      -3.340  -0.237  -2.361  0.00  0.00     0.036 C 
ATOM      8  C   UNL d   1      -4.156   0.149  -1.158  0.00  0.00    -0.061 C 
ATOM      9  C   UNL d   1      -5.359   0.692  -1.374  0.00  0.00     0.058 C 
ATOM     10  C   UNL d   1      -6.122   1.269  -0.262  0.00  0.00     0.172 C 
ATOM     11  O   UNL d   1      -7.310   1.646  -0.431  0.00  0.00    -0.289 OA
ATOM     12  C   UNL d   1      -5.448   1.488   1.021  0.00  0.00     0.052 C 
ATOM     13  C   UNL d   1      -4.250   0.941   1.240  0.00  0.00    -0.006 C 
ATOM     14  C   UNL d   1      -3.599  -0.013   0.254  0.00  0.00     0.036 C 
ATOM     15  C   UNL d   1      -3.937  -1.429   0.718  0.00  0.00     0.028 C 
ATOM     16  C   UNL d   1      -2.063   0.220   0.194  0.00  0.00     0.147 C 
ATOM     17  F   UNL d   1      -1.843   1.464  -0.388  0.00  0.00    -0.238 F 
ATOM     18  C   UNL d   1      -1.365   0.258   1.586  0.00  0.00     0.160 C 
ATOM     19  C   UNL d   1       0.173   0.401   1.472  0.00  0.00     0.048 C 
ATOM     20  C   UNL d   1       0.783  -0.642   0.517  0.00  0.00     0.001 C 
ATOM     21  C   UNL d   1       0.628  -2.053   1.116  0.00  0.00     0.019 C 
ATOM     22  C   UNL d   1       2.243  -0.371   0.086  0.00  0.00     0.131 C 
ENDROOT
BRANCH  22  23
ATOM     23  O   UNL d   1       2.378   0.991  -0.215  0.00  0.00    -0.381 OA
ATOM     24  HO  UNL d   1       3.275   1.158  -0.480  1.00  0.00     0.211 HD
ENDBRANCH  22  23
BRANCH  22  25
ATOM     25  C   UNL d   1       3.309  -0.712   1.129  0.00  0.00     0.186 C 
ATOM     26  O   UNL d   1       2.983  -0.992   2.272  0.00  0.00    -0.292 OA
BRANCH  25  27
ATOM     27  C   UNL d   1       4.783  -0.622   0.832  0.00  0.00     0.264 C 
BRANCH  27  28
ATOM     28  O   UNL d   1       5.030  -0.113  -0.447  0.00  0.00    -0.275 OA
BRANCH  28  29
ATOM     29  P   UNL d   1       6.075   1.200  -0.213  0.00  0.00     0.422 P 
ATOM     30  O   UNL d   1       5.335   2.357   0.775  0.00  0.00    -0.617 OA
ATOM     31  O   UNL d   1       7.511   0.673   0.511  0.00  0.00    -0.617 OA
ATOM     32  O   UNL d   1       6.395   1.823  -1.552  0.00  0.00    -0.617 OA
ENDBRANCH  28  29
ENDBRANCH  27  28
ENDBRANCH  25  27
ENDBRANCH  22  25
BRANCH  18  33
ATOM     33  O   UNL d   1      -1.688  -0.853   2.369  0.00  0.00    -0.392 OA
ATOM     34  HO  UNL d   1      -1.262  -0.830   3.218  1.00  0.00     0.210 HD
ENDBRANCH  18  33
TORSDOF 6
