REMARK  6 active torsions:
REMARK  status: ('A' for Active; 'I' for Inactive)
REMARK    1  A    between atoms: C_16  and  O_30 
REMARK    2  A    between atoms: C_19  and  C_20 
REMARK    3  A    between atoms: C_19  and  O_27 
REMARK    4  A    between atoms: C_20  and  C_22 
REMARK    5  A    between atoms: C_22  and  O_23 
REMARK    6  A    between atoms: O_23  and  C_24 
ROOT
ATOM      1  C   UNL d   1      -2.068  -0.282  -4.116  0.00  0.00     0.013 C 
ATOM      2  C   UNL d   1      -1.747  -1.270  -3.003  0.00  0.00     0.025 C 
ATOM      3  C   UNL d   1      -0.259  -1.560  -2.911  0.00  0.00     0.013 C 
ATOM      4  C   UNL d   1       0.032  -1.896  -1.446  0.00  0.00     0.005 C 
ATOM      5  C   UNL d   1       1.126  -0.981  -0.901  0.00  0.00     0.035 C 
ATOM      6  C   UNL d   1       2.445  -1.022  -1.661  0.00  0.00     0.013 C 
ATOM      7  C   UNL d   1       3.222   0.249  -1.319  0.00  0.00     0.036 C 
ATOM      8  C   UNL d   1       3.183   0.549   0.158  0.00  0.00    -0.061 C 
ATOM      9  C   UNL d   1       3.652   1.729   0.570  0.00  0.00     0.058 C 
ATOM     10  C   UNL d   1       3.621   2.095   1.988  0.00  0.00     0.172 C 
ATOM     11  O   UNL d   1       4.109   3.190   2.371  0.00  0.00    -0.289 OA
ATOM     12  C   UNL d   1       2.985   1.195   2.952  0.00  0.00     0.052 C 
ATOM     13  C   UNL d   1       2.525   0.007   2.559  0.00  0.00    -0.006 C 
ATOM     14  C   UNL d   1       2.667  -0.511   1.137  0.00  0.00     0.036 C 
ATOM     15  C   UNL d   1       1.316  -1.154   0.617  0.00  0.00     0.147 C 
ATOM     16  C   UNL d   1       0.056  -0.542   1.247  0.00  0.00     0.160 C 
ATOM     17  C   UNL d   1      -1.232  -1.246   0.787  0.00  0.00     0.048 C 
ATOM     18  C   UNL d   1      -1.307  -1.740  -0.686  0.00  0.00     0.001 C 
ATOM     19  C   UNL d   1      -2.195  -0.852  -1.599  0.00  0.00     0.131 C 
ATOM     20  C   UNL d   1      -1.890  -3.149  -0.601  0.00  0.00     0.019 C 
ATOM     21  F   UNL d   1       1.312  -2.511   0.927  0.00  0.00    -0.238 F 
ATOM     22  C   UNL d   1       3.757  -1.580   1.204  0.00  0.00     0.028 C 
ENDROOT
BRANCH  19  23
ATOM     23  C   UNL d   1      -1.991   0.642  -1.357  0.00  0.00     0.186 C 
ATOM     24  O   UNL d   1      -0.926   1.175  -1.632  0.00  0.00    -0.292 OA
BRANCH  23  25
ATOM     25  C   UNL d   1      -3.082   1.485  -0.778  0.00  0.00     0.260 C 
BRANCH  25  26
ATOM     26  O   UNL d   1      -3.047   1.404   0.639  0.00  0.00    -0.314 OA
BRANCH  26  27
ATOM     27  C   UNL d   1      -3.960   2.089   1.439  0.00  0.00     0.255 C 
ATOM     28  O   UNL d   1      -4.858   2.810   0.926  0.00  0.00    -0.266 OA
ATOM     29  C   UNL d   1      -3.872   1.967   2.917  0.00  0.00     0.126 C 
ENDBRANCH  26  27
ENDBRANCH  25  26
ENDBRANCH  23  25
ENDBRANCH  19  23
BRANCH  19  30
ATOM     30  O   UNL d   1      -3.551  -1.170  -1.440  0.00  0.00    -0.381 OA
ATOM     31  HO  UNL d   1      -3.829  -0.911  -0.570  1.00  0.00     0.211 HD
ENDBRANCH  19  30
BRANCH  16  32
ATOM     32  O   UNL d   1      -0.022   0.833   1.011  0.00  0.00    -0.392 OA
ATOM     33  HO  UNL d   1      -0.802   1.211   1.401  1.00  0.00     0.210 HD
ENDBRANCH  16  32
TORSDOF 6
