REMARK  4 active torsions:
REMARK  status: ('A' for Active; 'I' for Inactive)
REMARK    1  A    between atoms: C_1  and  O_2 
REMARK    2  A    between atoms: C_1  and  C_6 
REMARK    3  A    between atoms: O_2  and  C_3 
REMARK    4  A    between atoms: C_9  and  O_10 
ROOT
ATOM      1  C   UNL d   1      -0.156  -0.312   0.066  0.00  0.00     0.039 A 
ATOM      2  C   UNL d   1      -0.452   1.057   0.141  0.00  0.00     0.020 A 
ATOM      3  C   UNL d   1      -1.738   1.483   0.488  0.00  0.00     0.037 A 
ATOM      4  C   UNL d   1      -2.736   0.544   0.761  0.00  0.00     0.065 A 
ATOM      5  C   UNL d   1      -2.449  -0.822   0.689  0.00  0.00     0.037 A 
ATOM      6  C   UNL d   1      -1.163  -1.249   0.342  0.00  0.00     0.020 A 
ENDROOT
BRANCH   1   7
ATOM      7  C   UNL d   1       1.199  -0.755  -0.299  0.00  0.00     0.293 C 
ATOM      8  O   UNL d   1       1.464  -1.987  -0.366  0.00  0.00    -0.259 OA
BRANCH   7   9
ATOM      9  O   UNL d   1       2.188   0.194  -0.570  0.00  0.00    -0.318 OA
BRANCH   9  10
ATOM     10  C   UNL d   1       3.510  -0.181  -0.926  0.00  0.00     0.174 C 
ATOM     11  C   UNL d   1       4.343   1.062  -1.156  0.00  0.00     0.034 C 
ENDBRANCH   9  10
ENDBRANCH   7   9
ENDBRANCH   1   7
BRANCH   4  12
ATOM     12  O   UNL d   1      -4.012   0.967   1.105  0.00  0.00    -0.361 OA
ATOM     13  HO  UNL d   1      -4.690   0.329   1.291  1.00  0.00     0.217 HD
ENDBRANCH   4  12
TORSDOF 4
