REMARK  3 active torsions:
REMARK  status: ('A' for Active; 'I' for Inactive)
REMARK    1  A    between atoms: C_2  and  C_3 
REMARK    2  A    between atoms: C_3  and  O_5 
REMARK    3  A    between atoms: C_6  and  O_5 
ROOT
ATOM      1  C   UNL d   1       3.127   0.092  -1.367  0.00  0.00     0.140 C 
ATOM      2  C   UNL d   1       2.930   1.379  -2.186  0.00  0.00     0.034 C 
ATOM      3  C   UNL d   1       1.490   1.847  -1.981  0.00  0.00     0.008 C 
ATOM      4  C   UNL d   1       0.968   0.942  -0.891  0.00  0.00     0.001 C 
ATOM      5  C   UNL d   1       1.721  -0.367  -0.998  0.00  0.00    -0.013 C 
ATOM      6  C   UNL d   1       1.610  -1.146   0.328  0.00  0.00     0.012 C 
ATOM      7  C   UNL d   1       0.241  -0.988   1.034  0.00  0.00     0.007 C 
ATOM      8  C   UNL d   1      -0.862  -0.513   0.069  0.00  0.00    -0.002 C 
ATOM      9  C   UNL d   1      -0.542   0.815  -0.645  0.00  0.00    -0.005 C 
ATOM     10  C   UNL d   1      -1.406   0.934  -1.912  0.00  0.00     0.006 C 
ATOM     11  C   UNL d   1      -2.880   0.545  -1.672  0.00  0.00     0.006 C 
ATOM     12  C   UNL d   1      -3.196   0.425  -0.178  0.00  0.00     0.001 C 
ATOM     13  C   UNL d   1      -2.328  -0.636   0.539  0.00  0.00    -0.035 C 
ATOM     14  C   UNL d   1      -2.472  -0.400   2.053  0.00  0.00     0.021 C 
ATOM     15  C   UNL d   1      -3.931  -0.384   2.551  0.00  0.00     0.052 C 
ATOM     16  C   UNL d   1      -4.878   0.326   1.614  0.00  0.00     0.131 C 
ATOM     17  O   UNL d   1      -5.854   0.900   2.068  0.00  0.00    -0.298 OA
ATOM     18  C   UNL d   1      -4.679   0.275   0.127  0.00  0.00     0.084 C 
ATOM     19  C   UNL d   1      -4.426  -1.786   2.858  0.00  0.00     0.018 C 
ATOM     20  C   UNL d   1      -2.785  -2.048   0.181  0.00  0.00     0.016 C 
ATOM     21  C   UNL d   1       1.192  -1.240  -2.135  0.00  0.00     0.018 C 
ENDROOT
BRANCH   1  22
ATOM     22  O   UNL d   1       3.886   0.390  -0.198  0.00  0.00    -0.315 OA
BRANCH  22  23
ATOM     23  C   UNL d   1       5.271   0.569  -0.230  0.00  0.00     0.258 C 
ATOM     24  O   UNL d   1       5.913   0.457  -1.309  0.00  0.00    -0.265 OA
BRANCH  23  25
ATOM     25  C   UNL d   1       5.993   0.924   1.021  0.00  0.00     0.106 C 
ATOM     26  C   UNL d   1       5.897   2.417   1.262  0.00  0.00     0.015 C 
ENDBRANCH  23  25
ENDBRANCH  22  23
ENDBRANCH   1  22
TORSDOF 3
