REMARK  10 active torsions:
REMARK  status: ('A' for Active; 'I' for Inactive)
REMARK    1  A    between atoms: C_2  and  C_3 
REMARK    2  A    between atoms: C_2  and  N_25 
REMARK    3  A    between atoms: C_3  and  C_4 
REMARK    4  A    between atoms: C_4  and  C_5 
REMARK    5  A    between atoms: C_8  and  O_11 
REMARK    6  A    between atoms: C_13  and  C_14 
REMARK    7  A    between atoms: C_13  and  N_25 
REMARK    8  A    between atoms: C_14  and  C_15 
REMARK    9  A    between atoms: C_18  and  O_23 
REMARK   10  A    between atoms: C_19  and  O_21 
ROOT
ATOM      1  N   UNL d   1      -0.528  -0.011  -0.698  0.00  0.00    -0.071 N 
ATOM      2  HN1 UNL d   1      -0.085   0.101   0.214  1.00  0.00     0.277 HD
ATOM      3  HN2 UNL d   1      -1.251  -0.674  -0.416  1.00  0.00     0.277 HD
ENDROOT
BRANCH   1   4
ATOM      4  C   UNL d   1       0.376  -0.554  -1.703  0.00  0.00     0.182 C 
ATOM      5  C   UNL d   1       0.250  -2.066  -1.751  0.00  0.00     0.040 C 
BRANCH   4   6
ATOM      6  C   UNL d   1       1.817  -0.129  -1.429  0.00  0.00     0.037 C 
BRANCH   6   7
ATOM      7  C   UNL d   1       2.299  -0.572  -0.053  0.00  0.00     0.040 C 
BRANCH   7   8
ATOM      8  C   UNL d   1       3.700  -0.122   0.168  0.00  0.00    -0.058 A 
ATOM      9  C   UNL d   1       3.953   1.133   0.734  0.00  0.00     0.010 A 
ATOM     10  C   UNL d   1       5.269   1.562   0.926  0.00  0.00     0.037 A 
ATOM     11  C   UNL d   1       6.335   0.740   0.548  0.00  0.00     0.065 A 
ATOM     12  C   UNL d   1       6.085  -0.512  -0.023  0.00  0.00     0.037 A 
ATOM     13  C   UNL d   1       4.768  -0.942  -0.215  0.00  0.00     0.010 A 
BRANCH  11  14
ATOM     14  O   UNL d   1       7.642   1.166   0.740  0.00  0.00    -0.361 OA
ATOM     15  HO  UNL d   1       7.812   2.016   1.128  1.00  0.00     0.217 HD
ENDBRANCH  11  14
ENDBRANCH   7   8
ENDBRANCH   6   7
ENDBRANCH   4   6
ENDBRANCH   1   4
BRANCH   1  16
ATOM     16  C   UNL d   1      -1.075   1.234  -1.219  0.00  0.00     0.237 C 
BRANCH  16  17
ATOM     17  C   UNL d   1      -2.362   0.974  -1.991  0.00  0.00     0.066 C 
BRANCH  17  18
ATOM     18  C   UNL d   1      -3.467   0.573  -1.073  0.00  0.00    -0.054 A 
ATOM     19  C   UNL d   1      -3.747  -0.783  -0.866  0.00  0.00     0.046 A 
ATOM     20  C   UNL d   1      -4.772  -1.163   0.006  0.00  0.00     0.099 A 
ATOM     21  C   UNL d   1      -5.518  -0.184   0.677  0.00  0.00     0.098 A 
ATOM     22  C   UNL d   1      -5.235   1.170   0.473  0.00  0.00     0.040 A 
ATOM     23  C   UNL d   1      -4.210   1.549  -0.399  0.00  0.00     0.010 A 
BRANCH  20  24
ATOM     24  O   UNL d   1      -5.043  -2.511   0.203  0.00  0.00    -0.358 OA
ATOM     25  HO  UNL d   1      -4.537  -3.174  -0.252  1.00  0.00     0.217 HD
ENDBRANCH  20  24
BRANCH  21  26
ATOM     26  O   UNL d   1      -6.538  -0.551   1.546  0.00  0.00    -0.358 OA
ATOM     27  HO  UNL d   1      -6.730  -1.471   1.684  1.00  0.00     0.217 HD
ENDBRANCH  21  26
ENDBRANCH  17  18
ENDBRANCH  16  17
ENDBRANCH   1  16
TORSDOF 10
