REMARK  12 active torsions:
REMARK  status: ('A' for Active; 'I' for Inactive)
REMARK    1  A    between atoms: C_3  and  O_32 
REMARK    2  A    between atoms: C_11  and  N_15 
REMARK    3  A    between atoms: C_12  and  O_13 
REMARK       I    between atoms: N_15  and  C_17 
REMARK    4  A    between atoms: C_17  and  C_19 
REMARK    5  A    between atoms: C_22  and  O_30 
REMARK    6  A    between atoms: C_23  and  C_25 
REMARK    7  A    between atoms: C_25  and  C_26 
REMARK    8  A    between atoms: C_33  and  O_32 
REMARK    9  A    between atoms: C_34  and  O_47 
REMARK   10  A    between atoms: C_35  and  O_43 
REMARK   11  A    between atoms: C_36  and  O_41 
REMARK   12  A    between atoms: O_43  and  C_44 
ROOT
ATOM      1  C   UNL d   1      -2.119   1.801   1.884  0.00  0.00     0.054 C 
ATOM      2  C   UNL d   1      -1.819   1.123   0.586  0.00  0.00     0.006 A 
ATOM      3  C   UNL d   1      -2.845   0.918  -0.351  0.00  0.00     0.081 A 
ATOM      4  C   UNL d   1      -2.555   0.278  -1.567  0.00  0.00     0.038 A 
ATOM      5  C   UNL d   1      -1.260  -0.155  -1.850  0.00  0.00     0.020 A 
ATOM      6  C   UNL d   1      -0.235   0.047  -0.921  0.00  0.00     0.034 A 
ATOM      7  C   UNL d   1      -0.512   0.687   0.306  0.00  0.00     0.101 A 
ATOM      8  O   UNL d   1       0.462   0.869   1.194  0.00  0.00    -0.272 OA
ATOM      9  C   UNL d   1       1.717   0.482   0.982  0.00  0.00     0.318 A 
ATOM     10  O   UNL d   1       2.567   0.645   1.896  0.00  0.00    -0.257 OA
ATOM     11  C   UNL d   1       2.077  -0.131  -0.236  0.00  0.00     0.146 A 
ATOM     12  C   UNL d   1       1.074  -0.372  -1.181  0.00  0.00     0.111 A 
ENDROOT
BRANCH   3  13
ATOM     13  O   UNL d   1      -4.143   1.359  -0.060  0.00  0.00    -0.317 OA
BRANCH  13  14
ATOM     14  C   UNL d   1      -5.262   1.132  -0.917  0.00  0.00     0.298 C 
ATOM     15  O   UNL d   1      -6.315   2.042  -0.639  0.00  0.00    -0.345 OA
ATOM     16  C   UNL d   1      -6.835   1.919   0.685  0.00  0.00     0.085 C 
ATOM     17  C   UNL d   1      -6.805   0.466   1.234  0.00  0.00     0.187 C 
ATOM     18  C   UNL d   1      -6.051   2.819   1.625  0.00  0.00     0.048 C 
ATOM     19  C   UNL d   1      -8.264   2.441   0.651  0.00  0.00     0.048 C 
ATOM     20  C   UNL d   1      -6.896  -0.556   0.104  0.00  0.00     0.198 C 
ATOM     21  C   UNL d   1      -5.720  -0.335  -0.858  0.00  0.00     0.206 C 
BRANCH  17  22
ATOM     22  O   UNL d   1      -7.784   0.231   2.207  0.00  0.00    -0.385 OA
ATOM     23  C   UNL d   1      -7.074  -0.176   3.338  0.00  0.00     0.202 C 
ENDBRANCH  17  22
BRANCH  20  24
ATOM     24  O   UNL d   1      -8.151  -0.436  -0.562  0.00  0.00    -0.295 OA
BRANCH  24  25
ATOM     25  C   UNL d   1      -8.802  -1.534  -1.127  0.00  0.00     0.373 C 
ATOM     26  O   UNL d   1      -8.309  -2.691  -1.042  0.00  0.00    -0.242 OA
ATOM     27  N   UNL d   1     -10.038  -1.345  -1.803  0.00  0.00    -0.032 NA
ENDBRANCH  24  25
ENDBRANCH  20  24
BRANCH  21  28
ATOM     28  O   UNL d   1      -6.014  -0.799  -2.142  0.00  0.00    -0.388 OA
ATOM     29  HO  UNL d   1      -6.297  -1.705  -2.105  1.00  0.00     0.210 HD
ENDBRANCH  21  28
ENDBRANCH  13  14
ENDBRANCH   3  13
BRANCH  12  30
ATOM     30  O   UNL d   1       1.385  -1.014  -2.377  0.00  0.00    -0.357 OA
ATOM     31  HO  UNL d   1       2.274  -1.298  -2.554  1.00  0.00     0.217 HD
ENDBRANCH  12  30
BRANCH  11  32
ATOM     32  N   UNL d   1       3.414  -0.578  -0.507  0.00  0.00    -0.316 N 
ATOM     33  C   UNL d   1       4.616   0.124  -0.163  0.00  0.00     0.256 C 
ATOM     34  O   UNL d   1       4.568   1.340   0.169  0.00  0.00    -0.267 OA
ATOM     35  HN  UNL d   1       3.518  -1.472  -0.986  1.00  0.00     0.169 HD
BRANCH  33  36
ATOM     36  C   UNL d   1       5.917  -0.563  -0.247  0.00  0.00     0.033 A 
ATOM     37  C   UNL d   1       7.102   0.120   0.062  0.00  0.00     0.027 A 
ATOM     38  C   UNL d   1       8.340  -0.531  -0.009  0.00  0.00    -0.021 A 
ATOM     39  C   UNL d   1       8.395  -1.876  -0.407  0.00  0.00     0.072 A 
ATOM     40  C   UNL d   1       7.216  -2.561  -0.715  0.00  0.00     0.038 A 
ATOM     41  C   UNL d   1       5.983  -1.908  -0.634  0.00  0.00     0.020 A 
BRANCH  38  42
ATOM     42  C   UNL d   1       9.592   0.221   0.320  0.00  0.00     0.068 C 
BRANCH  42  43
ATOM     43  C   UNL d   1       9.632   0.618   1.768  0.00  0.00    -0.020 C 
ATOM     44  C   UNL d   1       9.929  -0.221   2.768  0.00  0.00    -0.091 C 
ATOM     45  C   UNL d   1      10.279  -1.654   2.528  0.00  0.00     0.042 C 
ATOM     46  C   UNL d   1       9.929   0.293   4.165  0.00  0.00     0.042 C 
ENDBRANCH  42  43
ENDBRANCH  38  42
BRANCH  39  47
ATOM     47  O   UNL d   1       9.613  -2.539  -0.505  0.00  0.00    -0.360 OA
ATOM     48  HO  UNL d   1      10.414  -2.074  -0.296  1.00  0.00     0.217 HD
ENDBRANCH  39  47
ENDBRANCH  33  36
ENDBRANCH  11  32
TORSDOF 12
