REMARK  Name = fda_4825
REMARK  0 active torsions:
REMARK  status: ('A' for Active; 'I' for Inactive)
REMARK                            x       y       z     vdW  Elec       q    Type
REMARK                         _______ _______ _______ _____ _____    ______ ____
ROOT
ATOM      1  C   UNL A   1      -3.046  -0.025   0.088  0.00  0.00    +0.021 A 
ATOM      2  C   UNL A   1      -2.085   0.975  -0.057  0.00  0.00    +0.004 A 
ATOM      3  C   UNL A   1      -0.724   0.648  -0.056  0.00  0.00    +0.032 A 
ATOM      4  C   UNL A   1       0.268   1.633  -0.200  0.00  0.00    +0.060 A 
ATOM      5  C   UNL A   1       1.615   1.263  -0.194  0.00  0.00    +0.021 A 
ATOM      6  C   UNL A   1       1.987  -0.075  -0.046  0.00  0.00    +0.071 A 
ATOM      7  C   UNL A   1       1.005  -1.066   0.098  0.00  0.00    +0.218 A 
ATOM      8  C   UNL A   1      -0.351  -0.709   0.093  0.00  0.00    +0.121 A 
ATOM      9  N   UNL A   1      -1.313  -1.663   0.233  0.00  0.00    -0.241 NA
ATOM     10  C   UNL A   1      -2.636  -1.352   0.233  0.00  0.00    +0.099 A 
ATOM     11  O   UNL A   1       1.375  -2.399   0.245  0.00  0.00    -0.284 OA
ATOM     12  I   UNL A   1       4.040  -0.563  -0.046  0.00  0.00    -0.039 I 
ATOM     13 CL   UNL A   1      -0.135   3.334  -0.390  0.00  0.00    -0.082 Cl
ENDROOT
TORSDOF 0
