REMARK  2 active torsions:
REMARK  status: ('A' for Active; 'I' for Inactive)
REMARK    1  A    between atoms: C_2  and  C_3 
REMARK    2  A    between atoms: C_2  and  C_10 
ROOT
ATOM      1  C   UNL d   1       0.919  -2.287  -1.356  0.00  0.00     0.021 C 
ATOM      2  C   UNL d   1       0.797  -0.794  -1.096  0.00  0.00     0.066 C 
ENDROOT
BRANCH   2   3
ATOM      3  C   UNL d   1       1.899  -0.302  -0.212  0.00  0.00     0.033 A 
ATOM      4  C   UNL d   1       2.698   0.783  -0.480  0.00  0.00     0.114 A 
ATOM      5  N   UNL d   1       3.539   0.930   0.560  0.00  0.00    -0.360 N 
ATOM      6  C   UNL d   1       3.223  -0.057   1.425  0.00  0.00     0.180 A 
ATOM      7  HN  UNL d   1       4.263   1.639   0.672  1.00  0.00     0.166 HD
ATOM      8  N   UNL d   1       2.214  -0.833   0.982  0.00  0.00    -0.354 N 
ATOM      9  HN  UNL d   1       1.788  -1.635   1.446  1.00  0.00     0.166 HD
ENDBRANCH   2   3
BRANCH   2  10
ATOM     10  C   UNL d   1      -0.558  -0.427  -0.555  0.00  0.00    -0.042 A 
ATOM     11  C   UNL d   1      -1.024  -1.024   0.628  0.00  0.00     0.008 A 
ATOM     12  C   UNL d   1      -2.272  -0.685   1.149  0.00  0.00     0.001 A 
ATOM     13  C   UNL d   1      -3.068   0.256   0.496  0.00  0.00     0.007 A 
ATOM     14  C   UNL d   1      -2.622   0.864  -0.680  0.00  0.00    -0.056 A 
ATOM     15  C   UNL d   1      -3.507   1.866  -1.341  0.00  0.00     0.049 C 
ATOM     16  C   UNL d   1      -1.361   0.528  -1.214  0.00  0.00    -0.049 A 
ATOM     17  C   UNL d   1      -0.878   1.181  -2.472  0.00  0.00     0.049 C 
ENDBRANCH   2  10
TORSDOF 2
