REMARK  3 active torsions:
REMARK  status: ('A' for Active; 'I' for Inactive)
REMARK    1  A    between atoms: C_3  and  O_17 
REMARK    2  A    between atoms: C_4  and  C_15 
REMARK    3  A    between atoms: C_6  and  C_7 
ROOT
ATOM      1  C   UNL d   1       0.393   0.126  -1.777  0.00  0.00     0.015 A 
ATOM      2  C   UNL d   1       1.730   0.214  -2.167  0.00  0.00     0.038 A 
ATOM      3  C   UNL d   1       2.748   0.205  -1.212  0.00  0.00     0.082 A 
ATOM      4  C   UNL d   1       2.426   0.107   0.158  0.00  0.00     0.074 A 
ATOM      5  C   UNL d   1       1.076   0.020   0.531  0.00  0.00     0.033 A 
ATOM      6  C   UNL d   1       0.045   0.028  -0.423  0.00  0.00    -0.022 A 
ENDROOT
BRANCH   6   7
ATOM      7  C   UNL d   1      -1.379  -0.067   0.013  0.00  0.00     0.013 A 
ATOM      8  C   UNL d   1      -2.462  -0.064  -0.899  0.00  0.00     0.130 A 
ATOM      9  C   UNL d   1      -3.777  -0.156  -0.432  0.00  0.00     0.085 A 
ATOM     10  F   UNL d   1      -2.267   0.025  -2.239  0.00  0.00    -0.205 F 
ATOM     11  C   UNL d   1      -4.037  -0.251   0.935  0.00  0.00     0.119 A 
ATOM     12  C   UNL d   1      -2.982  -0.254   1.845  0.00  0.00     0.043 A 
ATOM     13  F   UNL d   1      -5.314  -0.339   1.377  0.00  0.00    -0.206 F 
ATOM     14  C   UNL d   1      -1.666  -0.164   1.387  0.00  0.00     0.018 A 
ENDBRANCH   6   7
BRANCH   4  15
ATOM     15  C   UNL d   1       3.462   0.093   1.216  0.00  0.00     0.212 C 
ATOM     16  O   UNL d   1       3.126   0.004   2.428  0.00  0.00    -0.644 OA
ATOM     17  O   UNL d   1       4.812   0.177   0.900  0.00  0.00    -0.644 OA
ENDBRANCH   4  15
BRANCH   3  18
ATOM     18  O   UNL d   1       4.066   0.294  -1.642  0.00  0.00    -0.360 OA
ATOM     19  HO  UNL d   1       4.759   0.289  -0.992  1.00  0.00     0.217 HD
ENDBRANCH   3  18
TORSDOF 3
