REMARK  3 active torsions:
REMARK  status: ('A' for Active; 'I' for Inactive)
REMARK    1  A    between atoms: C_2  and  O_4 
REMARK    2  A    between atoms: C_2  and  C_12 
REMARK    3  A    between atoms: O_4  and  C_5 
ROOT
ATOM      1  C   UNL d   1       0.449  -0.498   0.328  0.00  0.00     0.070 A 
ATOM      2  C   UNL d   1       1.316   0.520  -0.103  0.00  0.00     0.038 A 
ATOM      3  C   UNL d   1       2.700   0.327  -0.077  0.00  0.00     0.026 A 
ATOM      4  C   UNL d   1       3.227  -0.884   0.379  0.00  0.00     0.034 A 
ATOM      5 CL   UNL d   1       4.960  -1.127   0.411  0.00  0.00    -0.084 Cl
ATOM      6  C   UNL d   1       2.371  -1.901   0.809  0.00  0.00     0.026 A 
ATOM      7  C   UNL d   1       0.987  -1.707   0.783  0.00  0.00     0.038 A 
ENDROOT
BRANCH   1   8
ATOM      8  O   UNL d   1      -0.948  -0.345   0.319  0.00  0.00    -0.330 OA
BRANCH   8   9
ATOM      9  C   UNL d   1      -1.664   0.820  -0.112  0.00  0.00     0.148 C 
ATOM     10  C   UNL d   1      -1.279   2.021   0.739  0.00  0.00     0.058 C 
ATOM     11  C   UNL d   1      -1.363   1.113  -1.575  0.00  0.00     0.058 C 
BRANCH   9  12
ATOM     12  C   UNL d   1      -3.139   0.586   0.033  0.00  0.00     0.209 C 
ATOM     13  O   UNL d   1      -4.042   1.582  -0.325  0.00  0.00    -0.646 OA
ATOM     14  O   UNL d   1      -3.575  -0.509   0.478  0.00  0.00    -0.646 OA
ENDBRANCH   9  12
ENDBRANCH   8   9
ENDBRANCH   1   8
TORSDOF 3
