REMARK  7 active torsions:
REMARK  status: ('A' for Active; 'I' for Inactive)
REMARK    1  A    between atoms: C_2  and  C_3 
REMARK    2  A    between atoms: C_3  and  C_4 
REMARK    3  A    between atoms: C_4  and  C_5 
REMARK    4  A    between atoms: N_13  and  C_14 
REMARK    5  A    between atoms: C_14  and  C_15 
REMARK    6  A    between atoms: C_18  and  C_21 
REMARK    7  A    between atoms: C_26  and  C_27 
ROOT
ATOM      1  C   UNL d   1       0.412   0.834   0.830  0.00  0.00    -0.040 A 
ATOM      2  C   UNL d   1      -0.462  -0.188   1.215  0.00  0.00     0.010 A 
ATOM      3  C   UNL d   1      -1.710  -0.310   0.599  0.00  0.00     0.013 A 
ATOM      4  C   UNL d   1      -2.097   0.593  -0.402  0.00  0.00    -0.025 A 
ATOM      5  C   UNL d   1      -1.206   1.600  -0.802  0.00  0.00     0.013 A 
ATOM      6  C   UNL d   1       0.043   1.721  -0.186  0.00  0.00     0.010 A 
ENDROOT
BRANCH   1   7
ATOM      7  C   UNL d   1       1.757   0.946   1.466  0.00  0.00     0.172 C 
BRANCH   7   8
ATOM      8  N   UNL d   1       2.725   0.117   0.757  0.00  0.00    -0.301 N 
ATOM      9  C   UNL d   1       3.357   0.420  -0.482  0.00  0.00     0.083 A 
ATOM     10  N   UNL d   1       3.876  -0.608  -1.081  0.00  0.00    -0.362 N 
ATOM     11  C   UNL d   1       3.630  -1.815  -0.292  0.00  0.00     0.113 A 
ATOM     12  HN  UNL d   1       4.379  -0.578  -1.967  1.00  0.00     0.162 HD
ATOM     13  C   UNL d   1       4.937  -2.465   0.125  0.00  0.00     0.041 C 
ATOM     14  C   UNL d   1       2.835  -2.832  -1.090  0.00  0.00     0.041 C 
ATOM     15  C   UNL d   1       2.864  -1.286   0.867  0.00  0.00     0.254 A 
ATOM     16  C   UNL d   1       4.842  -3.913  -0.308  0.00  0.00     0.003 C 
ATOM     17  C   UNL d   1       3.808  -3.946  -1.413  0.00  0.00     0.003 C 
ATOM     18  O   UNL d   1       2.383  -1.972   1.808  0.00  0.00    -0.270 OA
BRANCH   9  19
ATOM     19  C   UNL d   1       3.450   1.799  -1.047  0.00  0.00     0.076 C 
BRANCH  19  20
ATOM     20  C   UNL d   1       4.406   2.664  -0.237  0.00  0.00     0.007 C 
BRANCH  20  21
ATOM     21  C   UNL d   1       5.856   2.372  -0.590  0.00  0.00    -0.004 C 
ATOM     22  C   UNL d   1       6.392   1.234   0.257  0.00  0.00     0.005 C 
ENDBRANCH  20  21
ENDBRANCH  19  20
ENDBRANCH   9  19
ENDBRANCH   7   8
ENDBRANCH   1   7
BRANCH   4  23
ATOM     23  C   UNL d   1      -3.398   0.443  -1.083  0.00  0.00    -0.012 A 
ATOM     24  C   UNL d   1      -4.634   0.343  -0.388  0.00  0.00     0.021 A 
ATOM     25  C   UNL d   1      -5.806   0.093  -1.117  0.00  0.00     0.016 A 
ATOM     26  C   UNL d   1      -5.775  -0.031  -2.506  0.00  0.00     0.001 A 
ATOM     27  C   UNL d   1      -4.568   0.096  -3.190  0.00  0.00     0.001 A 
ATOM     28  C   UNL d   1      -3.389   0.329  -2.482  0.00  0.00     0.013 A 
BRANCH  24  29
ATOM     29  C   UNL d   1      -4.769   0.555   1.071  0.00  0.00     0.142 A 
ATOM     30  N   UNL d   1      -3.911   1.257   1.834  0.00  0.00    -0.270 N 
ATOM     31  N   UNL d   1      -4.444   1.244   3.045  0.00  0.00    -0.007 NA
ATOM     32  HN  UNL d   1      -3.041   1.703   1.543  1.00  0.00     0.185 HD
ATOM     33  N   UNL d   1      -5.584   0.573   3.023  0.00  0.00    -0.007 NA
ATOM     34  N   UNL d   1      -5.821   0.134   1.798  0.00  0.00    -0.270 N 
ATOM     35  HN  UNL d   1      -6.625  -0.405   1.476  1.00  0.00     0.185 HD
ENDBRANCH  24  29
ENDBRANCH   4  23
TORSDOF 7
