REMARK  9 active torsions:
REMARK  status: ('A' for Active; 'I' for Inactive)
REMARK    1  A    between atoms: C_2  and  C_3 
REMARK    2  A    between atoms: C_2  and  N_24 
REMARK    3  A    between atoms: C_3  and  C_4 
REMARK    4  A    between atoms: C_4  and  C_5 
REMARK    5  A    between atoms: C_11  and  C_13 
REMARK    6  A    between atoms: C_11  and  N_24 
REMARK    7  A    between atoms: C_13  and  C_14 
REMARK    8  A    between atoms: C_13  and  O_22 
REMARK    9  A    between atoms: C_17  and  O_20 
ROOT
ATOM      1  C   UNL d   1       0.681  -1.470  -1.229  0.00  0.00     0.215 C 
ATOM      2  C   UNL d   1      -0.171  -2.700  -1.486  0.00  0.00     0.043 C 
ENDROOT
BRANCH   1   3
ATOM      3  C   UNL d   1       2.168  -1.822  -1.329  0.00  0.00     0.181 C 
BRANCH   3   4
ATOM      4  C   UNL d   1       3.037  -0.628  -1.078  0.00  0.00    -0.028 A 
ATOM      5  C   UNL d   1       3.058   0.452  -1.974  0.00  0.00     0.012 A 
ATOM      6  C   UNL d   1       3.857   1.568  -1.710  0.00  0.00     0.037 A 
ATOM      7  C   UNL d   1       4.635   1.611  -0.549  0.00  0.00     0.065 A 
ATOM      8  C   UNL d   1       4.615   0.538   0.347  0.00  0.00     0.037 A 
ATOM      9  C   UNL d   1       3.816  -0.579   0.083  0.00  0.00     0.012 A 
BRANCH   7  10
ATOM     10  O   UNL d   1       5.428   2.719  -0.287  0.00  0.00    -0.361 OA
ATOM     11  HO  UNL d   1       5.442   3.448  -0.896  1.00  0.00     0.217 HD
ENDBRANCH   7  10
ENDBRANCH   3   4
BRANCH   3  12
ATOM     12  O   UNL d   1       2.459  -2.360  -2.586  0.00  0.00    -0.389 OA
ATOM     13  HO  UNL d   1       3.382  -2.578  -2.648  1.00  0.00     0.210 HD
ENDBRANCH   3  12
ENDBRANCH   1   3
BRANCH   1  14
ATOM     14  N   UNL d   1       0.372  -0.954   0.097  0.00  0.00    -0.065 N 
ATOM     15  HN2 UNL d   1       1.137  -1.078   0.761  1.00  0.00     0.278 HD
ATOM     16  HN1 UNL d   1      -0.324  -1.513   0.590  1.00  0.00     0.278 HD
BRANCH  14  17
ATOM     17  C   UNL d   1      -0.024   0.439  -0.058  0.00  0.00     0.182 C 
ATOM     18  C   UNL d   1       0.525   1.267   1.089  0.00  0.00     0.040 C 
BRANCH  17  19
ATOM     19  C   UNL d   1      -1.543   0.568  -0.157  0.00  0.00     0.037 C 
BRANCH  19  20
ATOM     20  C   UNL d   1      -2.251  -0.011   1.062  0.00  0.00     0.040 C 
BRANCH  20  21
ATOM     21  C   UNL d   1      -3.726   0.107   0.900  0.00  0.00    -0.058 A 
ATOM     22  C   UNL d   1      -4.446  -0.916   0.272  0.00  0.00     0.007 A 
ATOM     23  C   UNL d   1      -5.829  -0.798   0.104  0.00  0.00     0.001 A 
ATOM     24  C   UNL d   1      -6.493   0.346   0.560  0.00  0.00     0.000 A 
ATOM     25  C   UNL d   1      -5.774   1.371   1.182  0.00  0.00     0.001 A 
ATOM     26  C   UNL d   1      -4.391   1.253   1.350  0.00  0.00     0.007 A 
ENDBRANCH  20  21
ENDBRANCH  19  20
ENDBRANCH  17  19
ENDBRANCH  14  17
ENDBRANCH   1  14
TORSDOF 9
