REMARK  7 active torsions:
REMARK  status: ('A' for Active; 'I' for Inactive)
REMARK    1  A    between atoms: C_3  and  O_41 
REMARK    2  A    between atoms: C_4  and  O_39 
REMARK    3  A    between atoms: C_5  and  O_37 
REMARK    4  A    between atoms: C_6  and  O_8 
REMARK    5  A    between atoms: C_9  and  O_8 
REMARK    6  A    between atoms: C_17  and  C_28 
REMARK    7  A    between atoms: C_20  and  O_26 
ROOT
ATOM      1  C   UNL d   1       2.696   0.405  -0.570  0.00  0.00     0.147 C 
ATOM      2  C   UNL d   1       1.891   1.553  -1.159  0.00  0.00     0.037 C 
ATOM      3  C   UNL d   1       1.465   1.175  -2.573  0.00  0.00     0.017 C 
ATOM      4  C   UNL d   1       0.629  -0.123  -2.622  0.00  0.00    -0.017 C 
ATOM      5  C   UNL d   1      -0.888   0.183  -2.573  0.00  0.00     0.005 C 
ATOM      6  C   UNL d   1      -1.275   1.185  -1.463  0.00  0.00     0.007 C 
ATOM      7  C   UNL d   1      -2.486   0.747  -0.636  0.00  0.00     0.013 C 
ATOM      8  C   UNL d   1      -3.672   0.306  -1.517  0.00  0.00    -0.005 C 
ATOM      9  C   UNL d   1      -4.780  -0.374  -0.701  0.00  0.00     0.032 C 
ATOM     10  C   UNL d   1      -4.639  -1.866  -0.902  0.00  0.00     0.013 C 
ATOM     11  C   UNL d   1      -4.085  -2.015  -2.300  0.00  0.00     0.040 C 
ATOM     12  C   UNL d   1      -3.246  -0.769  -2.578  0.00  0.00     0.070 C 
ATOM     13  C   UNL d   1      -1.736  -1.112  -2.536  0.00  0.00     0.026 C 
ATOM     14  C   UNL d   1      -1.330  -2.004  -1.345  0.00  0.00     0.012 C 
ATOM     15  C   UNL d   1       0.151  -2.365  -1.410  0.00  0.00     0.035 C 
ATOM     16  C   UNL d   1       0.970  -1.114  -1.513  0.00  0.00    -0.072 C 
ATOM     17  C   UNL d   1       1.872  -0.849  -0.556  0.00  0.00     0.008 C 
ATOM     18  C   UNL d   1      -4.277   1.556  -2.153  0.00  0.00     0.019 C 
ATOM     19  C   UNL d   1       0.941  -0.772  -3.962  0.00  0.00     0.020 C 
ENDROOT
BRANCH   1  20
ATOM     20  O   UNL d   1       3.093   0.721   0.731  0.00  0.00    -0.349 OA
BRANCH  20  21
ATOM     21  C   UNL d   1       4.492   0.701   0.698  0.00  0.00     0.292 C 
ATOM     22  C   UNL d   1       5.092   2.061   1.155  0.00  0.00     0.204 C 
ATOM     23  C   UNL d   1       5.999   1.910   2.383  0.00  0.00     0.183 C 
ATOM     24  C   UNL d   1       6.990   0.747   2.182  0.00  0.00     0.178 C 
ATOM     25  C   UNL d   1       6.362  -0.389   1.343  0.00  0.00     0.152 C 
ATOM     26  C   UNL d   1       6.922  -1.764   1.666  0.00  0.00     0.042 C 
ATOM     27  O   UNL d   1       4.963  -0.385   1.468  0.00  0.00    -0.351 OA
BRANCH  22  28
ATOM     28  O   UNL d   1       4.108   3.028   1.379  0.00  0.00    -0.388 OA
ATOM     29  HO  UNL d   1       3.546   3.121   0.619  1.00  0.00     0.210 HD
ENDBRANCH  22  28
BRANCH  23  30
ATOM     30  O   UNL d   1       5.218   1.698   3.525  0.00  0.00    -0.390 OA
ATOM     31  HO  UNL d   1       4.608   2.415   3.649  1.00  0.00     0.210 HD
ENDBRANCH  23  30
BRANCH  24  32
ATOM     32  O   UNL d   1       7.464   0.291   3.417  0.00  0.00    -0.390 OA
ATOM     33  HO  UNL d   1       7.850   0.989   3.933  1.00  0.00     0.210 HD
ENDBRANCH  24  32
ENDBRANCH  20  21
ENDBRANCH   1  20
BRANCH  12  34
ATOM     34  O   UNL d   1      -3.547  -0.345  -3.877  0.00  0.00    -0.389 OA
ATOM     35  HO  UNL d   1      -3.289  -0.996  -4.519  1.00  0.00     0.210 HD
ENDBRANCH  12  34
BRANCH   9  36
ATOM     36  C   UNL d   1      -4.916   0.031   0.743  0.00  0.00    -0.030 A 
ATOM     37  C   UNL d   1      -4.133  -0.545   1.752  0.00  0.00     0.153 A 
ATOM     38  O   UNL d   1      -4.259  -0.146   3.015  0.00  0.00    -0.287 OA
ATOM     39  C   UNL d   1      -5.114   0.807   3.379  0.00  0.00     0.287 A 
ATOM     40  C   UNL d   1      -5.922   1.433   2.427  0.00  0.00     0.083 A 
ATOM     41  O   UNL d   1      -5.195   1.147   4.588  0.00  0.00    -0.260 OA
ATOM     42  C   UNL d   1      -5.815   1.038   1.094  0.00  0.00     0.015 A 
ENDBRANCH   9  36
TORSDOF 7
