REMARK  6 active torsions:
REMARK  status: ('A' for Active; 'I' for Inactive)
REMARK    1  A    between atoms: N_4  and  C_7 
REMARK    2  A    between atoms: C_7  and  C_8 
REMARK    3  A    between atoms: CA_9  and  C_27 
REMARK    4  A    between atoms: CA_12  and  N_15 
REMARK       I    between atoms: N_15  and  C_17 
REMARK    5  A    between atoms: C_17  and  C_19 
REMARK    6  A    between atoms: C_19  and  C_20 
ROOT
ATOM      1  C   UNL d   1      -2.112   0.677   0.755  0.00  0.00    -0.019 C 
ATOM      2  CA  UNL d   1      -1.343  -0.350   1.191  0.00  0.00     0.120 C 
ATOM      3  N   UNL d   1      -0.345  -0.849   0.296  0.00  0.00    -0.293 N 
ATOM      4  C   UNL d   1      -0.060  -0.531  -1.079  0.00  0.00     0.187 A 
ATOM      5  CA  UNL d   1       1.288  -1.058  -1.010  0.00  0.00     0.210 A 
ATOM      6  C   UNL d   1       0.991  -1.476   0.397  0.00  0.00     0.251 A 
ATOM      7  O   UNL d   1       1.636  -2.065   1.303  0.00  0.00    -0.271 OA
ATOM      8  S   UNL d   1      -0.279   1.274  -1.278  0.00  0.00    -0.136 SA
ATOM      9  C   UNL d   1      -2.006   1.174  -0.669  0.00  0.00     0.114 C 
ENDROOT
BRANCH   5  10
ATOM     10  N   UNL d   1       2.318  -0.024  -1.002  0.00  0.00    -0.345 N 
ATOM     11  C   UNL d   1       2.932   0.450  -2.202  0.00  0.00     0.223 C 
ATOM     12  O   UNL d   1       2.611  -0.032  -3.321  0.00  0.00    -0.273 OA
ATOM     13  HN  UNL d   1       2.609   0.374  -0.109  1.00  0.00     0.163 HD
BRANCH  11  14
ATOM     14  C   UNL d   1       3.985   1.500  -2.125  0.00  0.00     0.148 C 
BRANCH  14  15
ATOM     15  C   UNL d   1       5.302   0.887  -1.796  0.00  0.00    -0.009 A 
ATOM     16  S   UNL d   1       5.864   0.569  -0.251  0.00  0.00    -0.106 SA
ATOM     17  C   UNL d   1       7.312  -0.152  -0.712  0.00  0.00     0.050 A 
ATOM     18  C   UNL d   1       7.350  -0.152  -2.105  0.00  0.00     0.008 A 
ATOM     19  C   UNL d   1       6.226   0.423  -2.716  0.00  0.00     0.015 A 
ENDBRANCH  14  15
ENDBRANCH  11  14
ENDBRANCH   5  10
BRANCH   2  20
ATOM     20  C   UNL d   1      -1.419  -0.917   2.559  0.00  0.00     0.227 C 
ATOM     21  O   UNL d   1      -1.983  -0.296   3.499  0.00  0.00    -0.643 OA
ATOM     22  OXT UNL d   1      -0.845  -2.153   2.824  0.00  0.00    -0.643 OA
ENDBRANCH   2  20
BRANCH   1  23
ATOM     23  C   UNL d   1      -3.183   1.301   1.600  0.00  0.00     0.165 C 
BRANCH  23  24
ATOM     24  N   UNL d   1      -4.484   0.730   1.282  0.00  0.00    -0.362 N 
ATOM     25  C   UNL d   1      -5.268   1.335   0.348  0.00  0.00     0.090 A 
ATOM     26  C   UNL d   1      -6.516   0.799   0.020  0.00  0.00     0.017 A 
ATOM     27  C   UNL d   1      -6.947  -0.364   0.661  0.00  0.00     0.003 A 
ATOM     28  C   UNL d   1      -6.132  -0.973   1.615  0.00  0.00     0.017 A 
ATOM     29  C   UNL d   1      -4.891  -0.406   1.915  0.00  0.00     0.090 A 
ENDBRANCH  23  24
ENDBRANCH   1  23
TORSDOF 6
