REMARK  3 active torsions:
REMARK  status: ('A' for Active; 'I' for Inactive)
REMARK    1  A    between atoms: C_6  and  O_25 
REMARK    2  A    between atoms: C_14  and  O_23 
REMARK    3  A    between atoms: C_16  and  O_21 
ROOT
ATOM      1  C   UNL d   1       0.634   2.649  -2.424  0.00  0.00     0.040 C 
ATOM      2  C   UNL d   1       0.523   2.731  -0.910  0.00  0.00     0.128 C 
ATOM      3  C   UNL d   1       1.866   3.042  -0.248  0.00  0.00     0.032 C 
ATOM      4  C   UNL d   1       2.969   2.051  -0.600  0.00  0.00     0.005 C 
ATOM      5  C   UNL d   1       2.850   0.795   0.240  0.00  0.00     0.032 C 
ATOM      6  C   UNL d   1       4.026  -0.124  -0.036  0.00  0.00     0.118 C 
ATOM      7  C   UNL d   1       3.667  -1.540   0.379  0.00  0.00     0.032 C 
ATOM      8  C   UNL d   1       3.189  -2.369  -0.812  0.00  0.00     0.002 C 
ATOM      9  C   UNL d   1       1.928  -1.805  -1.455  0.00  0.00     0.000 C 
ATOM     10  C   UNL d   1       0.763  -1.840  -0.485  0.00  0.00     0.005 C 
ATOM     11  C   UNL d   1      -0.450  -1.202  -1.135  0.00  0.00     0.040 C 
ATOM     12  C   UNL d   1      -1.567  -1.083  -0.148  0.00  0.00    -0.036 A 
ATOM     13  C   UNL d   1      -2.185  -2.261   0.291  0.00  0.00     0.044 A 
ATOM     14  C   UNL d   1      -3.259  -2.211   1.178  0.00  0.00     0.068 A 
ATOM     15  C   UNL d   1      -3.732  -0.981   1.628  0.00  0.00     0.074 A 
ATOM     16  C   UNL d   1      -3.136   0.206   1.196  0.00  0.00     0.085 A 
ATOM     17  C   UNL d   1      -2.044   0.174   0.299  0.00  0.00     0.079 A 
ATOM     18  C   UNL d   1      -1.442   1.444  -0.177  0.00  0.00     0.297 C 
ATOM     19  O   UNL d   1      -2.182   2.446  -0.380  0.00  0.00    -0.259 OA
ATOM     20  O   UNL d   1      -0.062   1.545  -0.384  0.00  0.00    -0.312 OA
ENDROOT
BRANCH   6  21
ATOM     21  O   UNL d   1       5.133   0.306   0.695  0.00  0.00    -0.396 OA
ATOM     22  HO  UNL d   1       5.869  -0.269   0.523  1.00  0.00     0.210 HD
ENDBRANCH   6  21
BRANCH  16  23
ATOM     23  O   UNL d   1      -3.633   1.412   1.677  0.00  0.00    -0.360 OA
ATOM     24  HO  UNL d   1      -3.228   2.220   1.383  1.00  0.00     0.217 HD
ENDBRANCH  16  23
BRANCH  14  25
ATOM     25  O   UNL d   1      -3.857  -3.386   1.610  0.00  0.00    -0.361 OA
ATOM     26  HO  UNL d   1      -4.589  -3.353   2.215  1.00  0.00     0.217 HD
ENDBRANCH  14  25
TORSDOF 3
