REMARK  13 active torsions:
REMARK  status: ('A' for Active; 'I' for Inactive)
REMARK    1  A    between atoms: C_2  and  C_4 
REMARK    2  A    between atoms: C_2  and  O_41 
REMARK    3  A    between atoms: C_9  and  C_10 
REMARK    4  A    between atoms: C_10  and  C_11 
REMARK    5  A    between atoms: C_12  and  C_11 
REMARK    6  A    between atoms: C_12  and  C_13 
REMARK    7  A    between atoms: C_12  and  S_33 
REMARK    8  A    between atoms: C_17  and  C_19 
REMARK    9  A    between atoms: C_20  and  C_21 
REMARK   10  A    between atoms: S_33  and  C_34 
REMARK   11  A    between atoms: C_34  and  C_35 
REMARK   12  A    between atoms: C_35  and  C_38 
REMARK   13  A    between atoms: C_38  and  C_39 
ROOT
ATOM      1  C   UNL d   1      -1.828   0.412  -0.942  0.00  0.00     0.080 C 
ENDROOT
BRANCH   1   2
ATOM      2  C   UNL d   1      -1.990  -1.104  -0.978  0.00  0.00     0.025 C 
BRANCH   2   3
ATOM      3  C   UNL d   1      -3.459  -1.511  -1.046  0.00  0.00     0.040 C 
BRANCH   3   4
ATOM      4  C   UNL d   1      -4.055  -1.212  -2.389  0.00  0.00    -0.049 A 
ATOM      5  C   UNL d   1      -4.081  -2.167  -3.441  0.00  0.00    -0.019 A 
ATOM      6  C   UNL d   1      -4.607  -1.772  -4.686  0.00  0.00     0.011 A 
ATOM      7  C   UNL d   1      -5.121  -0.490  -4.881  0.00  0.00     0.001 A 
ATOM      8  C   UNL d   1      -5.106   0.431  -3.836  0.00  0.00     0.001 A 
ATOM      9  C   UNL d   1      -4.574   0.071  -2.599  0.00  0.00     0.007 A 
BRANCH   5  10
ATOM     10  C   UNL d   1      -3.497  -3.567  -3.279  0.00  0.00     0.078 C 
ATOM     11  C   UNL d   1      -1.982  -3.494  -3.293  0.00  0.00     0.051 C 
ATOM     12  C   UNL d   1      -3.926  -4.510  -4.396  0.00  0.00     0.051 C 
BRANCH  10  13
ATOM     13  O   UNL d   1      -3.916  -4.127  -2.070  0.00  0.00    -0.386 OA
ATOM     14  HO  UNL d   1      -4.865  -4.173  -2.061  1.00  0.00     0.211 HD
ENDBRANCH  10  13
ENDBRANCH   5  10
ENDBRANCH   3   4
ENDBRANCH   2   3
ENDBRANCH   1   2
BRANCH   1  15
ATOM     15  C   UNL d   1      -0.406   0.813  -1.170  0.00  0.00    -0.043 A 
ATOM     16  C   UNL d   1       0.624   0.346  -0.339  0.00  0.00     0.019 A 
ATOM     17  C   UNL d   1       1.952   0.743  -0.562  0.00  0.00    -0.036 A 
ATOM     18  C   UNL d   1       2.240   1.614  -1.618  0.00  0.00     0.011 A 
ATOM     19  C   UNL d   1       1.215   2.085  -2.445  0.00  0.00     0.001 A 
ATOM     20  C   UNL d   1      -0.105   1.686  -2.220  0.00  0.00     0.008 A 
BRANCH  17  21
ATOM     21  C   UNL d   1       3.055   0.266   0.282  0.00  0.00     0.013 C 
ATOM     22  C   UNL d   1       2.872  -0.562   1.308  0.00  0.00     0.030 C 
BRANCH  22  23
ATOM     23  C   UNL d   1       3.990  -1.033   2.133  0.00  0.00     0.032 A 
ATOM     24  N   UNL d   1       5.268  -0.637   1.872  0.00  0.00    -0.356 N 
ATOM     25  C   UNL d   1       6.316  -1.070   2.623  0.00  0.00     0.044 A 
ATOM     26  HN  UNL d   1       5.443  -0.000   1.095  1.00  0.00     0.166 HD
ATOM     27  C   UNL d   1       6.093  -1.951   3.702  0.00  0.00    -0.009 A 
ATOM     28  C   UNL d   1       7.615  -0.646   2.329  0.00  0.00     0.054 A 
ATOM     29  C   UNL d   1       4.791  -2.367   3.983  0.00  0.00     0.016 A 
ATOM     30  C   UNL d   1       7.168  -2.403   4.473  0.00  0.00     0.015 A 
ATOM     31  C   UNL d   1       3.732  -1.905   3.196  0.00  0.00     0.030 A 
ATOM     32  C   UNL d   1       8.466  -1.975   4.174  0.00  0.00     0.025 A 
ATOM     33  C   UNL d   1       8.689  -1.100   3.105  0.00  0.00     0.036 A 
ATOM     34 CL   UNL d   1      10.316  -0.568   2.739  0.00  0.00    -0.084 Cl
ENDBRANCH  22  23
ENDBRANCH  17  21
ENDBRANCH   1  15
BRANCH   1  35
ATOM     35  S   UNL d   1      -2.454   1.105   0.622  0.00  0.00    -0.159 SA
BRANCH  35  36
ATOM     36  C   UNL d   1      -3.224   2.507  -0.245  0.00  0.00     0.084 C 
BRANCH  36  37
ATOM     37  C   UNL d   1      -4.458   2.983   0.504  0.00  0.00    -0.022 A 
ATOM     38  C   UNL d   1      -5.570   3.511  -0.374  0.00  0.00     0.011 A 
ATOM     39  C   UNL d   1      -5.699   2.147   0.293  0.00  0.00     0.011 A 
BRANCH  37  40
ATOM     40  C   UNL d   1      -4.346   3.629   1.880  0.00  0.00     0.123 C 
BRANCH  40  41
ATOM     41  C   UNL d   1      -3.543   4.885   1.817  0.00  0.00     0.173 C 
ATOM     42  O   UNL d   1      -2.337   4.879   2.183  0.00  0.00    -0.648 OA
ATOM     43  O   UNL d   1      -4.119   6.058   1.339  0.00  0.00    -0.648 OA
ENDBRANCH  40  41
ENDBRANCH  37  40
ENDBRANCH  36  37
ENDBRANCH  35  36
ENDBRANCH   1  35
TORSDOF 13
