REMARK  2 active torsions:
REMARK  status: ('A' for Active; 'I' for Inactive)
REMARK       I    between atoms: N_2  and  C_4 
REMARK       I    between atoms: C_4  and  N_6 
REMARK    1  A    between atoms: N_6  and  C_8 
REMARK    2  A    between atoms: C_8  and  C_9 
ROOT
ATOM      1  C   UNL d   1       3.647   1.721   1.106  0.00  0.00     0.165 C 
ATOM      2  N   UNL d   1       2.559   0.865   1.551  0.00  0.00    -0.231 N 
ATOM      3  HN  UNL d   1       2.342   0.888   2.548  1.00  0.00     0.177 HD
ATOM      4  C   UNL d   1       1.757  -0.010   0.740  0.00  0.00     0.669 C 
ATOM      5  C   UNL d   1       2.926   0.517  -1.367  0.00  0.00     0.165 C 
ATOM      6  N   UNL d   1       0.727  -0.759   1.392  0.00  0.00    -0.222 N 
ATOM      7  HN  UNL d   1       0.634  -0.671   2.404  1.00  0.00     0.178 HD
ATOM      8  N   UNL d   1       1.933  -0.155  -0.545  0.00  0.00    -0.231 N 
ATOM      9  HN  UNL d   1       1.310  -0.807  -1.022  1.00  0.00     0.177 HD
ENDROOT
BRANCH   6  10
ATOM     10  C   UNL d   1      -0.196  -1.641   0.689  0.00  0.00     0.176 C 
BRANCH  10  11
ATOM     11  C   UNL d   1      -1.247  -0.846  -0.010  0.00  0.00    -0.040 A 
ATOM     12  C   UNL d   1      -2.286  -0.258   0.721  0.00  0.00     0.009 A 
ATOM     13  C   UNL d   1      -3.264   0.496   0.065  0.00  0.00     0.001 A 
ATOM     14  C   UNL d   1      -3.204   0.664  -1.322  0.00  0.00     0.000 A 
ATOM     15  C   UNL d   1      -2.166   0.079  -2.053  0.00  0.00     0.001 A 
ATOM     16  C   UNL d   1      -1.188  -0.675  -1.398  0.00  0.00     0.009 A 
ENDBRANCH  10  11
ENDBRANCH   6  10
TORSDOF 2
