REMARK  Name = fda_4719
REMARK  6 active torsions:
REMARK  status: ('A' for Active; 'I' for Inactive)
REMARK    1  A    between atoms: O_2  and  C_3
REMARK    2  A    between atoms: C_3  and  C_4
REMARK    3  A    between atoms: C_4  and  O_5
REMARK    4  A    between atoms: O_5  and  C_6
REMARK    5  A    between atoms: N_12  and  S_13
REMARK    6  A    between atoms: S_13  and  C_16
REMARK                            x       y       z     vdW  Elec       q    Type
REMARK                         _______ _______ _______ _____ _____    ______ ____
ROOT
ATOM      1  C   UNL A   1       1.916  -1.108  -0.363  0.00  0.00    +0.177 A 
ATOM      2  C   UNL A   1       0.727  -1.260   0.347  0.00  0.00    +0.140 A 
ATOM      3  N   UNL A   1      -0.099  -0.197   0.527  0.00  0.00    -0.206 NA
ATOM      4  C   UNL A   1       0.213   1.028   0.021  0.00  0.00    +0.259 A 
ATOM      5  N   UNL A   1       1.367   1.196  -0.676  0.00  0.00    -0.206 NA
ATOM      6  C   UNL A   1       2.220   0.158  -0.877  0.00  0.00    +0.140 A 
ATOM      7  N   UNL A   1      -0.663   2.140   0.210  0.00  0.00    -0.058 NA
ENDROOT
BRANCH   7   8
ATOM      8  S   UNL A   1      -2.162   2.014   1.069  0.00  0.00    +0.096 S 
ATOM      9  O   UNL A   1      -1.882   1.626   2.494  0.00  0.00    -0.148 OA
ATOM     10  O   UNL A   1      -2.860   3.344   1.051  0.00  0.00    -0.148 OA
BRANCH   8  11
ATOM     11  C   UNL A   1      -3.188   0.816   0.301  0.00  0.00    +0.127 A 
ATOM     12  C   UNL A   1      -3.822  -0.169   1.068  0.00  0.00    +0.020 A 
ATOM     13  C   UNL A   1      -4.632  -1.125   0.450  0.00  0.00    +0.001 A 
ATOM     14  C   UNL A   1      -4.811  -1.099  -0.937  0.00  0.00    +0.000 A 
ATOM     15  C   UNL A   1      -4.179  -0.117  -1.705  0.00  0.00    +0.001 A 
ATOM     16  C   UNL A   1      -3.368   0.840  -1.087  0.00  0.00    +0.020 A 
ENDBRANCH   8  11
ENDBRANCH   7   8
BRANCH   1  17
ATOM     17  O   UNL A   1       2.759  -2.210  -0.545  0.00  0.00    -0.470 OA
BRANCH  17  18
ATOM     18  C   UNL A   1       4.009  -2.130  -1.220  0.00  0.00    +0.237 C 
BRANCH  18  19
ATOM     19  C   UNL A   1       5.056  -1.517  -0.309  0.00  0.00    +0.189 C 
BRANCH  19  21
ATOM     20  C   UNL A   1       7.130  -0.800  -0.090  0.00  0.00    +0.174 C 
ATOM     21  O   UNL A   1       6.271  -1.431  -0.989  0.00  0.00    -0.347 OA
ENDBRANCH  19  21
ENDBRANCH  18  19
ENDBRANCH  17  18
ENDBRANCH   1  17
TORSDOF 6
