REMARK  10 active torsions:
REMARK  status: ('A' for Active; 'I' for Inactive)
REMARK    1  A    between atoms: C_2  and  C_3 
REMARK    2  A    between atoms: C_3  and  C_4 
REMARK    3  A    between atoms: C_4  and  O_6 
REMARK    4  A    between atoms: C_7  and  O_6 
REMARK    5  A    between atoms: C_7  and  C_31 
REMARK    6  A    between atoms: C_13  and  O_27 
REMARK    7  A    between atoms: C_31  and  C_33 
REMARK    8  A    between atoms: C_33  and  O_34 
REMARK    9  A    between atoms: O_34  and  C_35 
REMARK   10  A    between atoms: C_35  and  C_37 
ROOT
ATOM      1  C   UNL d   1      -1.913   0.930   0.620  0.00  0.00     0.144 C 
ATOM      2  C   UNL d   1      -2.613   0.175  -0.528  0.00  0.00     0.026 C 
ATOM      3  C   UNL d   1      -1.496  -0.453  -1.337  0.00  0.00     0.013 C 
ATOM      4  C   UNL d   1      -0.294   0.469  -1.192  0.00  0.00     0.005 C 
ATOM      5  C   UNL d   1      -0.560   1.413  -0.000  0.00  0.00     0.002 C 
ATOM      6  C   UNL d   1       0.584   1.442   1.049  0.00  0.00     0.048 C 
ATOM      7  C   UNL d   1       2.019   1.408   0.488  0.00  0.00     0.160 C 
ATOM      8  C   UNL d   1       2.193   0.699  -0.883  0.00  0.00     0.147 C 
ATOM      9  C   UNL d   1       1.019  -0.295  -1.037  0.00  0.00     0.035 C 
ATOM     10  C   UNL d   1       1.292  -1.326  -2.122  0.00  0.00     0.013 C 
ATOM     11  C   UNL d   1       2.362  -2.280  -1.596  0.00  0.00     0.036 C 
ATOM     12  C   UNL d   1       3.473  -1.544  -0.893  0.00  0.00    -0.061 C 
ATOM     13  C   UNL d   1       4.359  -2.268  -0.203  0.00  0.00     0.058 C 
ATOM     14  C   UNL d   1       5.453  -1.623   0.525  0.00  0.00     0.172 C 
ATOM     15  O   UNL d   1       6.313  -2.318   1.123  0.00  0.00    -0.289 OA
ATOM     16  C   UNL d   1       5.514  -0.162   0.584  0.00  0.00     0.052 C 
ATOM     17  C   UNL d   1       4.648   0.574  -0.112  0.00  0.00    -0.006 C 
ATOM     18  C   UNL d   1       3.601  -0.021  -1.042  0.00  0.00     0.036 C 
ATOM     19  C   UNL d   1       4.145   0.207  -2.451  0.00  0.00     0.028 C 
ATOM     20  F   UNL d   1       2.061   1.671  -1.873  0.00  0.00    -0.238 F 
ATOM     21  C   UNL d   1      -0.689   2.820  -0.579  0.00  0.00     0.019 C 
ATOM     22  C   UNL d   1      -3.417   1.091  -1.446  0.00  0.00     0.013 C 
ENDROOT
BRANCH   1  23
ATOM     23  O   UNL d   1      -2.691   2.059   1.066  0.00  0.00    -0.301 OA
BRANCH  23  24
ATOM     24  C   UNL d   1      -4.009   1.992   1.542  0.00  0.00     0.260 C 
ATOM     25  O   UNL d   1      -4.623   0.894   1.610  0.00  0.00    -0.265 OA
BRANCH  24  26
ATOM     26  C   UNL d   1      -4.706   3.249   1.937  0.00  0.00     0.111 C 
BRANCH  26  27
ATOM     27  C   UNL d   1      -5.381   3.889   0.735  0.00  0.00     0.005 C 
ATOM     28  C   UNL d   1      -4.358   4.590  -0.140  0.00  0.00     0.005 C 
ENDBRANCH  26  27
ENDBRANCH  24  26
ENDBRANCH  23  24
ENDBRANCH   1  23
BRANCH   1  29
ATOM     29  C   UNL d   1      -1.693  -0.037   1.791  0.00  0.00     0.187 C 
ATOM     30  O   UNL d   1      -2.005   0.290   2.926  0.00  0.00    -0.292 OA
BRANCH  29  31
ATOM     31  C   UNL d   1      -1.044  -1.373   1.595  0.00  0.00     0.260 C 
BRANCH  31  32
ATOM     32  O   UNL d   1      -2.026  -2.341   1.257  0.00  0.00    -0.314 OA
BRANCH  32  33
ATOM     33  C   UNL d   1      -1.676  -3.627   0.850  0.00  0.00     0.258 C 
ATOM     34  O   UNL d   1      -0.466  -3.973   0.767  0.00  0.00    -0.265 OA
BRANCH  33  35
ATOM     35  C   UNL d   1      -2.743  -4.590   0.466  0.00  0.00     0.106 C 
ATOM     36  C   UNL d   1      -3.177  -4.330  -0.962  0.00  0.00     0.015 C 
ENDBRANCH  33  35
ENDBRANCH  32  33
ENDBRANCH  31  32
ENDBRANCH  29  31
ENDBRANCH   1  29
BRANCH   7  37
ATOM     37  O   UNL d   1       2.546   2.701   0.458  0.00  0.00    -0.392 OA
ATOM     38  HO  UNL d   1       3.430   2.680   0.112  1.00  0.00     0.210 HD
ENDBRANCH   7  37
TORSDOF 10
