REMARK  10 active torsions:
REMARK  status: ('A' for Active; 'I' for Inactive)
REMARK    1  A    between atoms: C_3  and  O_2 
REMARK    2  A    between atoms: C_3  and  N_4 
REMARK       I    between atoms: N_4  and  C_6 
REMARK    3  A    between atoms: C_6  and  C_8 
REMARK    4  A    between atoms: C_8  and  C_9 
REMARK    5  A    between atoms: C_8  and  C_12 
REMARK    6  A    between atoms: C_15  and  O_16 
REMARK    7  A    between atoms: C_23  and  C_24 
REMARK    8  A    between atoms: C_24  and  S_25 
REMARK    9  A    between atoms: S_25  and  C_26 
REMARK   10  A    between atoms: C_34  and  C_38 
ROOT
ATOM      1  C   UNL d   1      -0.729  -2.292   0.651  0.00  0.00     0.265 A 
ATOM      2  C   UNL d   1       0.549  -2.638   0.070  0.00  0.00     0.297 A 
ATOM      3  O   UNL d   1       0.798  -2.085  -1.209  0.00  0.00    -0.356 OA
ATOM      4  C   UNL d   1       2.200  -2.160  -1.434  0.00  0.00     0.208 C 
ATOM      5  C   UNL d   1       2.998  -1.321  -0.442  0.00  0.00    -0.013 C 
ATOM      6  C   UNL d   1       2.545  -1.236   0.827  0.00  0.00     0.122 C 
ATOM      7  N   UNL d   1       1.285  -1.859   1.040  0.00  0.00    -0.274 N 
ATOM      8  C   UNL d   1       0.013  -1.545   1.727  0.00  0.00     0.287 A 
ATOM      9  O   UNL d   1      -0.316  -0.875   2.741  0.00  0.00    -0.267 OA
ENDROOT
BRANCH   1  10
ATOM     10  O   UNL d   1      -1.385  -3.452   1.116  0.00  0.00    -0.354 OA
ATOM     11  C   UNL d   1      -2.494  -3.060   1.883  0.00  0.00     0.205 C 
ENDBRANCH   1  10
BRANCH   1  12
ATOM     12  N   UNL d   1      -1.591  -1.454  -0.201  0.00  0.00    -0.317 N 
ATOM     13  C   UNL d   1      -1.334  -0.110  -0.638  0.00  0.00     0.239 C 
ATOM     14  O   UNL d   1      -0.278   0.487  -0.305  0.00  0.00    -0.272 OA
ATOM     15  HN  UNL d   1      -2.466  -1.874  -0.515  1.00  0.00     0.166 HD
BRANCH  13  16
ATOM     16  C   UNL d   1      -2.327   0.602  -1.503  0.00  0.00     0.211 C 
BRANCH  16  17
ATOM     17  C   UNL d   1      -2.492  -0.048  -2.843  0.00  0.00     0.191 C 
ATOM     18  O   UNL d   1      -2.199   0.673  -3.992  0.00  0.00    -0.647 OA
ATOM     19  O   UNL d   1      -2.899  -1.236  -2.938  0.00  0.00    -0.647 OA
ENDBRANCH  16  17
BRANCH  16  20
ATOM     20  C   UNL d   1      -3.634   0.841  -0.805  0.00  0.00    -0.035 A 
ATOM     21  C   UNL d   1      -4.012   2.155  -0.506  0.00  0.00     0.011 A 
ATOM     22  C   UNL d   1      -5.220   2.408   0.151  0.00  0.00     0.037 A 
ATOM     23  C   UNL d   1      -6.054   1.347   0.514  0.00  0.00     0.065 A 
ATOM     24  C   UNL d   1      -5.681   0.032   0.221  0.00  0.00     0.037 A 
ATOM     25  C   UNL d   1      -4.474  -0.221  -0.436  0.00  0.00     0.011 A 
BRANCH  23  26
ATOM     26  O   UNL d   1      -7.253   1.599   1.167  0.00  0.00    -0.361 OA
ATOM     27  HO  UNL d   1      -7.819   0.878   1.414  1.00  0.00     0.217 HD
ENDBRANCH  23  26
ENDBRANCH  16  20
ENDBRANCH  13  16
ENDBRANCH   1  12
BRANCH   6  28
ATOM     28  C   UNL d   1       3.208  -0.497   1.925  0.00  0.00     0.227 C 
ATOM     29  O   UNL d   1       2.581  -0.394   3.160  0.00  0.00    -0.643 OA
ATOM     30  O   UNL d   1       4.345   0.022   1.776  0.00  0.00    -0.643 OA
ENDBRANCH   6  28
BRANCH   5  31
ATOM     31  C   UNL d   1       4.237  -0.636  -0.921  0.00  0.00     0.121 C 
BRANCH  31  32
ATOM     32  S   UNL d   1       3.808   0.728  -2.046  0.00  0.00    -0.087 SA
BRANCH  32  33
ATOM     33  C   UNL d   1       4.372   1.972  -0.888  0.00  0.00     0.175 A 
ATOM     34  N   UNL d   1       5.641   2.407  -0.796  0.00  0.00    -0.261 N 
ATOM     35  N   UNL d   1       5.621   3.319   0.169  0.00  0.00    -0.005 NA
ATOM     36  HN  UNL d   1       6.444   2.103  -1.347  1.00  0.00     0.186 HD
ATOM     37  N   UNL d   1       4.392   3.446   0.652  0.00  0.00    -0.223 N 
ATOM     38  N   UNL d   1       3.601   2.613   0.003  0.00  0.00    -0.262 N 
ATOM     39  HN  UNL d   1       4.107   4.079   1.398  1.00  0.00     0.206 HD
ATOM     40  C   UNL d   1       2.176   2.466   0.233  0.00  0.00     0.181 C 
ENDBRANCH  32  33
ENDBRANCH  31  32
ENDBRANCH   5  31
TORSDOF 10
