REMARK  4 active torsions:
REMARK  status: ('A' for Active; 'I' for Inactive)
REMARK    1  A    between atoms: C_3  and  C_4 
REMARK    2  A    between atoms: C_4  and  C_5 
REMARK    3  A    between atoms: C_5  and  N_6 
REMARK    4  A    between atoms: C_9  and  C_12 
ROOT
ATOM      1  N   UNL d   1      -0.331  -1.501  -0.731  0.00  0.00     0.088 N 
ATOM      2  C   UNL d   1       0.111  -0.515  -1.718  0.00  0.00     0.273 C 
ATOM      3  C   UNL d   1       1.278   0.340  -1.199  0.00  0.00     0.041 C 
ATOM      4  C   UNL d   1       1.730  -0.078   0.203  0.00  0.00     0.042 C 
ATOM      5  C   UNL d   1       1.899  -1.597   0.327  0.00  0.00     0.041 C 
ATOM      6  C   UNL d   1       0.802  -2.369  -0.416  0.00  0.00     0.273 C 
ENDROOT
BRANCH   1   7
ATOM      7  C   UNL d   1      -1.341  -2.324  -1.377  0.00  0.00     0.277 C 
BRANCH   7   8
ATOM      8  C   UNL d   1      -2.403  -2.749  -0.371  0.00  0.00     0.076 C 
BRANCH   8   9
ATOM      9  C   UNL d   1      -3.219  -1.571   0.081  0.00  0.00     0.034 A 
ATOM     10  C   UNL d   1      -2.951  -0.930   1.302  0.00  0.00     0.018 A 
ATOM     11  C   UNL d   1      -1.868  -1.407   2.210  0.00  0.00     0.069 C 
ATOM     12  N   UNL d   1      -3.691   0.144   1.675  0.00  0.00    -0.349 N 
ATOM     13  C   UNL d   1      -4.688   0.619   0.887  0.00  0.00     0.086 A 
ATOM     14  HN  UNL d   1      -3.494   0.603   2.565  1.00  0.00     0.167 HD
ATOM     15  C   UNL d   1      -5.486   1.805   1.323  0.00  0.00     0.077 C 
ATOM     16  N   UNL d   1      -4.973   0.019  -0.304  0.00  0.00    -0.303 N 
ATOM     17  C   UNL d   1      -5.680   2.756   0.140  0.00  0.00     0.009 C 
ATOM     18  C   UNL d   1      -6.062   2.059  -1.180  0.00  0.00     0.021 C 
ATOM     19  C   UNL d   1      -6.094   0.527  -1.098  0.00  0.00     0.133 C 
ATOM     20  C   UNL d   1      -4.259  -1.070  -0.719  0.00  0.00     0.257 A 
ATOM     21  O   UNL d   1      -4.532  -1.626  -1.819  0.00  0.00    -0.267 OA
ENDBRANCH   8   9
ENDBRANCH   7   8
ENDBRANCH   1   7
BRANCH   4  22
ATOM     22  C   UNL d   1       2.982   0.635   0.601  0.00  0.00     0.050 A 
ATOM     23  N   UNL d   1       3.068   1.476   1.659  0.00  0.00    -0.264 N 
ATOM     24  O   UNL d   1       4.299   1.914   1.714  0.00  0.00    -0.237 OA
ATOM     25  HN  UNL d   1       2.311   1.724   2.296  1.00  0.00     0.194 HD
ATOM     26  C   UNL d   1       5.010   1.393   0.743  0.00  0.00     0.114 A 
ATOM     27  C   UNL d   1       6.354   1.594   0.447  0.00  0.00     0.082 A 
ATOM     28  C   UNL d   1       4.219   0.567  -0.001  0.00  0.00     0.025 A 
ATOM     29  C   UNL d   1       6.880   0.905  -0.664  0.00  0.00     0.119 A 
ATOM     30  F   UNL d   1       8.183   1.064  -0.997  0.00  0.00    -0.206 F 
ATOM     31  C   UNL d   1       6.059   0.049  -1.433  0.00  0.00     0.043 A 
ATOM     32  C   UNL d   1       4.702  -0.131  -1.105  0.00  0.00     0.019 A 
ENDBRANCH   4  22
TORSDOF 4
