REMARK  Name = fda_6443
REMARK  4 active torsions:
REMARK  status: ('A' for Active; 'I' for Inactive)
REMARK    1  A    between atoms: O_2  and  C_3
REMARK    2  A    between atoms: C_10  and  C_11
REMARK    3  A    between atoms: C_11  and  C_13
REMARK    4  A    between atoms: C_20  and  C_21
REMARK                            x       y       z     vdW  Elec       q    Type
REMARK                         _______ _______ _______ _____ _____    ______ ____
ROOT
ATOM      1  C   UNL A   1      -3.506   0.408   1.437  0.00  0.00    +0.139 A 
ATOM      2  C   UNL A   1      -4.407   1.092   0.605  0.00  0.00    +0.038 A 
ATOM      3  C   UNL A   1      -4.157   1.206  -0.765  0.00  0.00    +0.022 A 
ATOM      4  C   UNL A   1      -3.006   0.639  -1.317  0.00  0.00    +0.081 A 
ATOM      5  N   UNL A   1      -2.766   0.756  -2.649  0.00  0.00    -0.244 NA
ATOM      6  C   UNL A   1      -1.656   0.223  -3.223  0.00  0.00    +0.099 A 
ATOM      7  C   UNL A   1      -0.726  -0.468  -2.445  0.00  0.00    +0.019 A 
ATOM      8  C   UNL A   1      -0.940  -0.619  -1.069  0.00  0.00    +0.012 A 
ATOM      9  C   UNL A   1      -2.092  -0.054  -0.489  0.00  0.00    +0.019 A 
ATOM     10  C   UNL A   1      -2.354  -0.161   0.885  0.00  0.00    +0.038 A 
ENDROOT
BRANCH   1  12
ATOM     11  C   UNL A   1      -4.873   0.825   3.456  0.00  0.00    +0.253 C 
ATOM     12  O   UNL A   1      -3.730   0.279   2.810  0.00  0.00    -0.471 OA
ENDBRANCH   1  12
BRANCH   8  13
ATOM     13  C   UNL A   1       0.078  -1.339  -0.227  0.00  0.00    +0.189 C 
ATOM     14  O   UNL A   1       0.535  -2.497  -0.864  0.00  0.00    -0.217 OA
BRANCH  13  15
ATOM     15  C   UNL A   1       1.232  -0.419   0.188  0.00  0.00    +0.092 C 
ATOM     16  C   UNL A   1       2.140  -1.059   1.261  0.00  0.00    +0.019 C 
ATOM     17  C   UNL A   1       3.603  -0.769   0.914  0.00  0.00    +0.008 C 
ATOM     18  C   UNL A   1       3.884  -1.462  -0.425  0.00  0.00    +0.018 C 
ATOM     19  C   UNL A   1       2.912  -0.928  -1.500  0.00  0.00    +0.072 C 
ATOM     20  N   UNL A   1       2.013   0.111  -0.956  0.00  0.00    -0.271 NA
ATOM     21  C   UNL A   1       2.852   1.216  -0.454  0.00  0.00    +0.076 C 
ATOM     22  C   UNL A   1       3.742   0.755   0.725  0.00  0.00    +0.038 C 
BRANCH  22  23
ATOM     23  C   UNL A   1       5.162   1.171   0.495  0.00  0.00    -0.025 C 
ATOM     24  C   UNL A   1       6.060   1.094   1.474  0.00  0.00    -0.005 C 
ENDBRANCH  22  23
ENDBRANCH  13  15
ENDBRANCH   8  13
TORSDOF 4
