REMARK  7 active torsions:
REMARK  status: ('A' for Active; 'I' for Inactive)
REMARK    1  A    between atoms: O_1  and  C_3 
REMARK    2  A    between atoms: C_4  and  O_5 
REMARK    3  A    between atoms: C_8  and  C_9 
REMARK    4  A    between atoms: C_10  and  C_11 
REMARK    5  A    between atoms: C_13  and  O_14 
REMARK    6  A    between atoms: C_16  and  O_17 
REMARK    7  A    between atoms: C_22  and  O_23 
ROOT
ATOM      1  C   UNL d   1      -3.009  -0.470  -0.148  0.00  0.00     0.135 A 
ATOM      2  C   UNL d   1      -1.712  -0.980  -0.411  0.00  0.00     0.105 A 
ATOM      3  C   UNL d   1      -0.711  -0.107  -0.864  0.00  0.00     0.051 A 
ATOM      4  C   UNL d   1      -0.962   1.257  -1.037  0.00  0.00    -0.031 A 
ATOM      5  C   UNL d   1      -2.246   1.745  -0.803  0.00  0.00     0.051 A 
ATOM      6  C   UNL d   1      -3.268   0.896  -0.354  0.00  0.00     0.105 A 
ENDROOT
BRANCH   4   7
ATOM      7  C   UNL d   1       0.059   2.179  -1.566  0.00  0.00     0.012 C 
ATOM      8  C   UNL d   1       1.388   2.101  -1.414  0.00  0.00     0.012 C 
BRANCH   8   9
ATOM      9  C   UNL d   1       2.139   1.169  -0.555  0.00  0.00    -0.033 A 
ATOM     10  C   UNL d   1       1.659   0.772   0.701  0.00  0.00     0.050 A 
ATOM     11  C   UNL d   1       2.419  -0.069   1.518  0.00  0.00     0.099 A 
ATOM     12  C   UNL d   1       3.682  -0.506   1.097  0.00  0.00     0.101 A 
ATOM     13  C   UNL d   1       4.176  -0.081  -0.147  0.00  0.00     0.040 A 
ATOM     14  C   UNL d   1       3.411   0.758  -0.962  0.00  0.00     0.014 A 
BRANCH  11  15
ATOM     15  O   UNL d   1       1.914  -0.466   2.750  0.00  0.00    -0.358 OA
ATOM     16  HO  UNL d   1       2.431  -1.038   3.305  1.00  0.00     0.217 HD
ENDBRANCH  11  15
BRANCH  12  17
ATOM     17  O   UNL d   1       4.428  -1.351   1.925  0.00  0.00    -0.353 OA
ATOM     18  C   UNL d   1       5.715  -1.836   1.570  0.00  0.00     0.210 C 
ENDBRANCH  12  17
ENDBRANCH   8   9
ENDBRANCH   4   7
BRANCH   2  19
ATOM     19  O   UNL d   1      -1.423  -2.336  -0.224  0.00  0.00    -0.353 OA
ATOM     20  C   UNL d   1      -0.135  -2.893  -0.452  0.00  0.00     0.210 C 
ENDBRANCH   2  19
BRANCH   6  21
ATOM     21  O   UNL d   1      -4.554   1.389  -0.106  0.00  0.00    -0.353 OA
ATOM     22  C   UNL d   1      -4.905   2.755  -0.287  0.00  0.00     0.210 C 
ENDBRANCH   6  21
BRANCH   1  23
ATOM     23  O   UNL d   1      -4.072  -1.266   0.310  0.00  0.00    -0.351 OA
ATOM     24  C   UNL d   1      -3.991  -2.658   0.582  0.00  0.00     0.210 C 
ENDBRANCH   1  23
TORSDOF 7
