REMARK  1 active torsions:
REMARK  status: ('A' for Active; 'I' for Inactive)
REMARK    1  A    between atoms: C_15  and  C_17 
ROOT
ATOM      1  C   UNL d   1      -0.929  -3.365  -2.134  0.00  0.00     0.041 C 
ATOM      2  C   UNL d   1      -1.550  -2.278  -1.278  0.00  0.00     0.149 C 
ATOM      3  C   UNL d   1      -1.321  -2.586   0.174  0.00  0.00     0.309 C 
ATOM      4  C   UNL d   1      -0.486  -1.305   1.964  0.00  0.00     0.380 C 
ATOM      5  C   UNL d   1       0.785  -0.811   2.554  0.00  0.00     0.250 C 
ATOM      6  O   UNL d   1       0.953  -0.957   3.792  0.00  0.00    -0.271 OA
ATOM      7  N   UNL d   1       1.812  -0.150   1.799  0.00  0.00    -0.325 N 
ATOM      8  HN  UNL d   1       2.612   0.125   2.368  1.00  0.00     0.169 HD
ATOM      9  C   UNL d   1       1.956   0.209   0.410  0.00  0.00     0.046 A 
ATOM     10  C   UNL d   1       3.179   0.797   0.065  0.00  0.00     0.032 A 
ATOM     11  C   UNL d   1       3.441   1.224  -1.235  0.00  0.00     0.026 A 
ATOM     12  C   UNL d   1       2.471   1.076  -2.220  0.00  0.00     0.034 A 
ATOM     13  C   UNL d   1       1.245   0.496  -1.903  0.00  0.00     0.038 A 
ATOM     14  C   UNL d   1       0.963   0.036  -0.603  0.00  0.00     0.041 A 
ATOM     15  C   UNL d   1      -0.420  -0.537  -0.347  0.00  0.00     0.321 C 
ATOM     16  O   UNL d   1      -0.935  -1.047  -1.566  0.00  0.00    -0.338 OA
ATOM     17 CL   UNL d   1       2.786   1.622  -3.852  0.00  0.00    -0.084 Cl
ATOM     18  N   UNL d   1      -0.283  -1.674   0.576  0.00  0.00     0.144 N 
ENDROOT
BRANCH  15  19
ATOM     19  C   UNL d   1      -1.379   0.564   0.144  0.00  0.00     0.012 A 
ATOM     20  C   UNL d   1      -0.904   1.717   0.798  0.00  0.00     0.012 A 
ATOM     21  C   UNL d   1      -1.791   2.687   1.273  0.00  0.00     0.001 A 
ATOM     22  C   UNL d   1      -3.167   2.514   1.110  0.00  0.00     0.000 A 
ATOM     23  C   UNL d   1      -3.656   1.369   0.476  0.00  0.00     0.001 A 
ATOM     24  C   UNL d   1      -2.768   0.400   0.002  0.00  0.00     0.012 A 
ENDBRANCH  15  19
TORSDOF 1
