REMARK  2 active torsions:
REMARK  status: ('A' for Active; 'I' for Inactive)
REMARK    1  A    between atoms: C_1  and  C_2 
REMARK    2  A    between atoms: C_1  and  N_5 
ROOT
ATOM      1  N   UNL d   1       0.866   0.576  -1.272  0.00  0.00    -0.340 N 
ATOM      2  C   UNL d   1       0.291   0.528  -0.059  0.00  0.00     0.078 A 
ATOM      3  C   UNL d   1       0.013  -0.564   0.773  0.00  0.00     0.020 A 
ATOM      4  C   UNL d   1      -0.614  -0.279   2.017  0.00  0.00     0.046 A 
ATOM      5  N   UNL d   1      -0.919   1.012   2.359  0.00  0.00    -0.342 N 
ATOM      6  HN  UNL d   1      -1.370   1.193   3.256  1.00  0.00     0.167 HD
ATOM      7  C   UNL d   1      -0.638   2.063   1.533  0.00  0.00     0.146 A 
ATOM      8  N   UNL d   1      -0.969   3.392   1.920  0.00  0.00    -0.080 NA
ATOM      9  C   UNL d   1      -0.024   1.799   0.311  0.00  0.00     0.102 A 
ATOM     10  N   UNL d   1       0.335   2.676  -0.645  0.00  0.00    -0.348 N 
ATOM     11  HN  UNL d   1       0.225   3.690  -0.646  1.00  0.00     0.167 HD
ATOM     12  C   UNL d   1       0.878   1.888  -1.610  0.00  0.00     0.184 A 
ATOM     13  C   UNL d   1      -0.918  -1.325   2.892  0.00  0.00     0.030 A 
ATOM     14  C   UNL d   1      -0.604  -2.643   2.543  0.00  0.00     0.002 A 
ATOM     15  C   UNL d   1       0.016  -2.922   1.320  0.00  0.00     0.001 A 
ATOM     16  C   UNL d   1       0.325  -1.885   0.435  0.00  0.00     0.016 A 
ENDROOT
BRANCH   1  17
ATOM     17  C   UNL d   1       1.338  -0.524  -2.103  0.00  0.00     0.134 C 
BRANCH  17  18
ATOM     18  C   UNL d   1       0.191  -1.122  -2.903  0.00  0.00    -0.004 C 
ATOM     19  C   UNL d   1       0.616  -2.464  -3.459  0.00  0.00     0.011 C 
ATOM     20  C   UNL d   1      -0.184  -0.203  -4.050  0.00  0.00     0.011 C 
ENDBRANCH  17  18
ENDBRANCH   1  17
TORSDOF 2
