REMARK  5 active torsions:
REMARK  status: ('A' for Active; 'I' for Inactive)
REMARK    1  A    between atoms: C_4  and  C_7 
REMARK    2  A    between atoms: C_7  and  C_8 
REMARK    3  A    between atoms: S_14  and  C_7 
REMARK    4  A    between atoms: S_14  and  C_16 
REMARK    5  A    between atoms: C_16  and  C_17 
ROOT
ATOM      1  C   UNL d   1      -0.203  -0.139  -0.679  0.00  0.00     0.145 C 
ENDROOT
BRANCH   1   2
ATOM      2  C   UNL d   1      -0.491   1.213  -0.097  0.00  0.00    -0.038 A 
ATOM      3  C   UNL d   1      -0.704   2.291  -0.963  0.00  0.00     0.009 A 
ATOM      4  C   UNL d   1      -0.975   3.564  -0.450  0.00  0.00     0.001 A 
ATOM      5  C   UNL d   1      -1.034   3.763   0.932  0.00  0.00     0.000 A 
ATOM      6  C   UNL d   1      -0.823   2.689   1.803  0.00  0.00     0.001 A 
ATOM      7  C   UNL d   1      -0.552   1.417   1.290  0.00  0.00     0.009 A 
ENDBRANCH   1   2
BRANCH   1   8
ATOM      8  C   UNL d   1      -1.300  -1.131  -0.431  0.00  0.00    -0.038 A 
ATOM      9  C   UNL d   1      -2.073  -1.570  -1.512  0.00  0.00     0.009 A 
ATOM     10  C   UNL d   1      -3.107  -2.489  -1.311  0.00  0.00     0.001 A 
ATOM     11  C   UNL d   1      -3.374  -2.972  -0.026  0.00  0.00     0.000 A 
ATOM     12  C   UNL d   1      -2.607  -2.536   1.058  0.00  0.00     0.001 A 
ATOM     13  C   UNL d   1      -1.573  -1.617   0.857  0.00  0.00     0.009 A 
ENDBRANCH   1   8
BRANCH   1  14
ATOM     14  S   UNL d   1       1.404  -0.766  -0.208  0.00  0.00     0.036 S 
ATOM     15  O   UNL d   1       1.495  -0.967   1.459  0.00  0.00    -0.257 OA
BRANCH  14  16
ATOM     16  C   UNL d   1       2.673   0.358  -0.750  0.00  0.00     0.209 C 
BRANCH  16  17
ATOM     17  C   UNL d   1       4.016  -0.212  -0.458  0.00  0.00     0.242 C 
ATOM     18  O   UNL d   1       4.574  -0.971  -1.293  0.00  0.00    -0.276 OA
ATOM     19  N   UNL d   1       4.656   0.074   0.780  0.00  0.00    -0.061 NA
ENDBRANCH  16  17
ENDBRANCH  14  16
ENDBRANCH   1  14
TORSDOF 5
