REMARK  3 active torsions:
REMARK  status: ('A' for Active; 'I' for Inactive)
REMARK    1  A    between atoms: C_10  and  N_3 
REMARK    2  A    between atoms: C_13  and  C_15 
REMARK    3  A    between atoms: C_15  and  O_16 
ROOT
ATOM      1  C   UNL d   1      -2.626  -0.329   0.455  0.00  0.00     0.062 A 
ATOM      2  C   UNL d   1      -1.290  -0.611   0.180  0.00  0.00     0.102 A 
ATOM      3  N   UNL d   1      -0.541   0.247  -0.571  0.00  0.00    -0.282 N 
ATOM      4  C   UNL d   1      -1.102   1.393  -1.065  0.00  0.00     0.329 A 
ATOM      5  O   UNL d   1      -0.422   2.192  -1.763  0.00  0.00    -0.246 OA
ATOM      6  N   UNL d   1      -2.405   1.679  -0.804  0.00  0.00    -0.297 N 
ATOM      7  HN  UNL d   1      -2.814   2.537  -1.176  1.00  0.00     0.171 HD
ATOM      8  C   UNL d   1      -3.172   0.844  -0.058  0.00  0.00     0.121 A 
ATOM      9  N   UNL d   1      -4.532   1.168   0.200  0.00  0.00    -0.083 NA
ENDROOT
BRANCH   3  10
ATOM     10  C   UNL d   1       0.859  -0.070  -0.855  0.00  0.00     0.242 C 
ATOM     11  O   UNL d   1       1.554  -0.345   0.329  0.00  0.00    -0.348 OA
ATOM     12  C   UNL d   1       2.803  -0.822  -0.090  0.00  0.00     0.209 C 
ATOM     13  S   UNL d   1       2.579  -2.000  -1.455  0.00  0.00    -0.131 SA
ATOM     14  C   UNL d   1       0.968  -1.262  -1.782  0.00  0.00     0.131 C 
BRANCH  12  15
ATOM     15  C   UNL d   1       3.508  -1.510   1.063  0.00  0.00     0.207 C 
BRANCH  15  16
ATOM     16  O   UNL d   1       3.820  -0.577   2.052  0.00  0.00    -0.398 OA
ATOM     17  HO  UNL d   1       4.262  -1.008   2.774  1.00  0.00     0.209 HD
ENDBRANCH  15  16
ENDBRANCH  12  15
ENDBRANCH   3  10
TORSDOF 3
