REMARK  Name = fda_6585
REMARK  1 active torsions:
REMARK  status: ('A' for Active; 'I' for Inactive)
REMARK    1  A    between atoms: C_7  and  C_9
REMARK                            x       y       z     vdW  Elec       q    Type
REMARK                         _______ _______ _______ _____ _____    ______ ____
ROOT
ATOM      1  N   UNL A   1       3.376   2.164  -0.840  0.00  0.00    -0.086 NA
ATOM      2  C   UNL A   1       2.657   1.041  -0.346  0.00  0.00    +0.260 A 
ATOM      3  N   UNL A   1       3.325  -0.009   0.192  0.00  0.00    -0.176 NA
ATOM      4  C   UNL A   1       2.636  -1.078   0.662  0.00  0.00    +0.260 A 
ATOM      5  N   UNL A   1       3.334  -2.181   1.227  0.00  0.00    -0.086 NA
ATOM      6  N   UNL A   1       1.281  -1.095   0.594  0.00  0.00    -0.192 NA
ATOM      7  C   UNL A   1       0.601  -0.048   0.057  0.00  0.00    +0.169 A 
ATOM      8  N   UNL A   1       1.302   1.020  -0.412  0.00  0.00    -0.192 NA
ENDROOT
BRANCH   7   9
ATOM      9  C   UNL A   1      -0.885  -0.048  -0.027  0.00  0.00    +0.047 A 
ATOM     10  C   UNL A   1      -1.503   1.079  -0.599  0.00  0.00    +0.015 A 
ATOM     11  C   UNL A   1      -2.890   1.163  -0.717  0.00  0.00    +0.058 A 
ATOM     12 CL   UNL A   1      -3.623   2.581  -1.434  0.00  0.00    -0.082 Cl
ATOM     13  C   UNL A   1      -3.691   0.117  -0.264  0.00  0.00    +0.012 A 
ATOM     14  C   UNL A   1      -3.103  -1.011   0.306  0.00  0.00    +0.012 A 
ATOM     15  C   UNL A   1      -1.713  -1.109   0.431  0.00  0.00    +0.061 A 
ATOM     16 CL   UNL A   1      -1.104  -2.585   1.169  0.00  0.00    -0.082 Cl
ENDBRANCH   7   9
TORSDOF 1
