REMARK  5 active torsions:
REMARK  status: ('A' for Active; 'I' for Inactive)
REMARK    1  A    between atoms: O_2  and  C_3 
REMARK    2  A    between atoms: C_3  and  C_5 
REMARK    3  A    between atoms: C_12  and  C_22 
REMARK    4  A    between atoms: C_13  and  C_14 
REMARK    5  A    between atoms: C_22  and  O_24 
ROOT
ATOM      1  C   UNL d   1      -1.576   0.350  -0.573  0.00  0.00     0.052 C 
ATOM      2  C   UNL d   1      -1.971  -0.163  -1.759  0.00  0.00     0.018 C 
ATOM      3  C   UNL d   1      -3.001   0.482  -2.624  0.00  0.00     0.069 C 
ATOM      4  N   UNL d   1      -1.450  -1.422  -2.193  0.00  0.00    -0.362 N 
ATOM      5  HN  UNL d   1      -1.639  -1.729  -3.148  1.00  0.00     0.165 HD
ATOM      6  C   UNL d   1      -0.674  -2.264  -1.338  0.00  0.00     0.018 C 
ATOM      7  C   UNL d   1      -0.403  -3.653  -1.815  0.00  0.00     0.069 C 
ATOM      8  C   UNL d   1      -0.258  -1.799  -0.139  0.00  0.00     0.052 C 
ATOM      9  C   UNL d   1      -0.438  -0.324   0.176  0.00  0.00     0.102 C 
ENDROOT
BRANCH   9  10
ATOM     10  C   UNL d   1       0.853   0.432  -0.025  0.00  0.00    -0.021 A 
ATOM     11  C   UNL d   1       1.432   0.484  -1.303  0.00  0.00     0.010 A 
ATOM     12  C   UNL d   1       2.622   1.179  -1.516  0.00  0.00     0.002 A 
ATOM     13  C   UNL d   1       3.247   1.832  -0.454  0.00  0.00     0.026 A 
ATOM     14  C   UNL d   1       2.686   1.794   0.825  0.00  0.00     0.056 A 
ATOM     15 CL   UNL d   1       3.518   2.636   2.123  0.00  0.00    -0.083 Cl
ATOM     16  C   UNL d   1       1.484   1.096   1.049  0.00  0.00     0.063 A 
ATOM     17 CL   UNL d   1       0.781   1.057   2.667  0.00  0.00    -0.082 Cl
ENDBRANCH   9  10
BRANCH   8  18
ATOM     18  C   UNL d   1       0.451  -2.634   0.870  0.00  0.00     0.291 C 
ATOM     19  O   UNL d   1       0.641  -3.868   0.682  0.00  0.00    -0.260 OA
BRANCH  18  20
ATOM     20  O   UNL d   1       0.898  -2.041   2.052  0.00  0.00    -0.323 OA
ATOM     21  C   UNL d   1       1.583  -2.779   3.053  0.00  0.00     0.213 C 
ENDBRANCH  18  20
ENDBRANCH   8  18
BRANCH   1  22
ATOM     22  C   UNL d   1      -2.141   1.596   0.009  0.00  0.00     0.291 C 
ATOM     23  O   UNL d   1      -1.905   1.875   1.216  0.00  0.00    -0.260 OA
BRANCH  22  24
ATOM     24  O   UNL d   1      -2.918   2.467  -0.760  0.00  0.00    -0.323 OA
ATOM     25  C   UNL d   1      -3.460   3.665  -0.224  0.00  0.00     0.213 C 
ENDBRANCH  22  24
ENDBRANCH   1  22
TORSDOF 5
