REMARK  5 active torsions:
REMARK  status: ('A' for Active; 'I' for Inactive)
REMARK       I    between atoms: C_2  and  N_4 
REMARK    1  A    between atoms: N_4  and  S_6 
REMARK    2  A    between atoms: S_6  and  C_9 
REMARK    3  A    between atoms: C_12  and  N_13 
REMARK       I    between atoms: N_13  and  C_15 
REMARK    4  A    between atoms: C_15  and  C_17 
REMARK    5  A    between atoms: C_18  and  C_23 
ROOT
ATOM      1  C   UNL d   1       2.786   0.572   0.013  0.00  0.00     0.080 A 
ATOM      2  C   UNL d   1       1.780   1.009   0.879  0.00  0.00     0.027 A 
ATOM      3  C   UNL d   1       0.461   0.587   0.690  0.00  0.00     0.031 A 
ATOM      4  C   UNL d   1       0.136  -0.275  -0.368  0.00  0.00     0.035 A 
ATOM      5  C   UNL d   1       1.147  -0.705  -1.235  0.00  0.00     0.031 A 
ATOM      6  C   UNL d   1       2.467  -0.283  -1.047  0.00  0.00     0.027 A 
ENDROOT
BRANCH   4   7
ATOM      7  N   UNL d   1      -1.205  -0.726  -0.597  0.00  0.00    -0.323 N 
ATOM      8  C   UNL d   1      -2.364  -0.419   0.194  0.00  0.00     0.257 C 
ATOM      9  O   UNL d   1      -2.255   0.260   1.250  0.00  0.00    -0.267 OA
ATOM     10  HN  UNL d   1      -1.352  -1.329  -1.406  1.00  0.00     0.169 HD
BRANCH   8  11
ATOM     11  C   UNL d   1      -3.678  -0.968  -0.203  0.00  0.00     0.049 A 
ATOM     12  C   UNL d   1      -4.914  -0.321   0.069  0.00  0.00     0.056 A 
ATOM     13  C   UNL d   1      -6.112  -0.984  -0.239  0.00  0.00     0.019 A 
ATOM     14  C   UNL d   1      -6.103  -2.247  -0.831  0.00  0.00     0.001 A 
ATOM     15  C   UNL d   1      -4.891  -2.866  -1.129  0.00  0.00     0.001 A 
ATOM     16  C   UNL d   1      -3.690  -2.231  -0.814  0.00  0.00     0.018 A 
BRANCH  12  17
ATOM     17  C   UNL d   1      -5.013   1.059   0.593  0.00  0.00     0.210 C 
ATOM     18  O   UNL d   1      -4.050   2.010   0.281  0.00  0.00    -0.644 OA
ATOM     19  O   UNL d   1      -6.015   1.404   1.274  0.00  0.00    -0.644 OA
ENDBRANCH  12  17
ENDBRANCH   8  11
ENDBRANCH   4   7
BRANCH   1  20
ATOM     20  S   UNL d   1       4.439   1.109   0.243  0.00  0.00     0.265 S 
ATOM     21  O   UNL d   1       4.618   2.453  -0.404  0.00  0.00    -0.200 OA
ATOM     22  O   UNL d   1       4.731   1.205   1.715  0.00  0.00    -0.200 OA
BRANCH  20  23
ATOM     23  N   UNL d   1       5.521  -0.035  -0.476  0.00  0.00    -0.251 N 
ATOM     24  C   UNL d   1       6.938   0.135  -0.459  0.00  0.00     0.227 C 
ATOM     25  C   UNL d   1       7.809  -0.886  -1.096  0.00  0.00     0.118 C 
ATOM     26  O   UNL d   1       7.458   1.142   0.091  0.00  0.00    -0.273 OA
ATOM     27  HN  UNL d   1       5.132  -0.862  -0.929  1.00  0.00     0.181 HD
ENDBRANCH  20  23
ENDBRANCH   1  20
TORSDOF 5
