REMARK  8 active torsions:
REMARK  status: ('A' for Active; 'I' for Inactive)
REMARK    1  A    between atoms: C_2  and  C_3 
REMARK    2  A    between atoms: C_3  and  O_5 
REMARK    3  A    between atoms: C_6  and  O_5 
REMARK    4  A    between atoms: C_6  and  C_29 
REMARK    5  A    between atoms: C_12  and  O_26 
REMARK    6  A    between atoms: C_29  and  C_31 
REMARK    7  A    between atoms: C_31  and  O_32 
REMARK    8  A    between atoms: O_32  and  C_33 
ROOT
ATOM      1  C   UNL d   1       1.980  -0.923  -0.090  0.00  0.00     0.140 C 
ATOM      2  C   UNL d   1       1.525  -2.362   0.127  0.00  0.00     0.048 C 
ATOM      3  C   UNL d   1       0.338  -2.284   1.068  0.00  0.00     0.009 C 
ATOM      4  C   UNL d   1      -0.217  -0.870   0.962  0.00  0.00     0.002 C 
ATOM      5  C   UNL d   1       0.653  -0.121  -0.061  0.00  0.00     0.002 C 
ATOM      6  C   UNL d   1      -0.043  -0.111  -1.438  0.00  0.00     0.045 C 
ATOM      7  C   UNL d   1      -1.423   0.553  -1.418  0.00  0.00     0.124 C 
ATOM      8  C   UNL d   1      -2.221   0.314  -0.117  0.00  0.00     0.035 C 
ATOM      9  C   UNL d   1      -1.722  -0.927   0.658  0.00  0.00    -0.001 C 
ATOM     10  C   UNL d   1      -2.470  -1.072   1.984  0.00  0.00     0.014 C 
ATOM     11  C   UNL d   1      -3.976  -1.195   1.789  0.00  0.00     0.012 C 
ATOM     12  C   UNL d   1      -4.486  -0.083   0.923  0.00  0.00    -0.060 C 
ATOM     13  C   UNL d   1      -5.622   0.522   1.283  0.00  0.00     0.059 C 
ATOM     14  C   UNL d   1      -6.144   1.650   0.509  0.00  0.00     0.172 C 
ATOM     15  O   UNL d   1      -7.257   2.160   0.798  0.00  0.00    -0.289 OA
ATOM     16  C   UNL d   1      -5.327   2.218  -0.565  0.00  0.00     0.052 C 
ATOM     17  C   UNL d   1      -4.205   1.605  -0.942  0.00  0.00    -0.009 C 
ATOM     18  C   UNL d   1      -3.753   0.273  -0.373  0.00  0.00     0.004 C 
ATOM     19  C   UNL d   1      -4.085  -0.795  -1.413  0.00  0.00     0.025 C 
ATOM     20  C   UNL d   1      -4.348  -2.558   1.228  0.00  0.00     0.015 C 
ATOM     21  C   UNL d   1       0.885   1.314   0.412  0.00  0.00     0.019 C 
ENDROOT
BRANCH   1  22
ATOM     22  O   UNL d   1       2.807  -0.530   1.018  0.00  0.00    -0.301 OA
BRANCH  22  23
ATOM     23  C   UNL d   1       4.023  -1.137   1.362  0.00  0.00     0.259 C 
ATOM     24  O   UNL d   1       4.486  -2.097   0.689  0.00  0.00    -0.265 OA
BRANCH  23  25
ATOM     25  C   UNL d   1       4.793  -0.619   2.523  0.00  0.00     0.106 C 
ATOM     26  C   UNL d   1       5.573   0.614   2.113  0.00  0.00     0.015 C 
ENDBRANCH  23  25
ENDBRANCH  22  23
ENDBRANCH   1  22
BRANCH   1  27
ATOM     27  C   UNL d   1       2.748  -0.748  -1.392  0.00  0.00     0.186 C 
ATOM     28  O   UNL d   1       2.858  -1.672  -2.185  0.00  0.00    -0.292 OA
BRANCH  27  29
ATOM     29  C   UNL d   1       3.386   0.564  -1.716  0.00  0.00     0.260 C 
BRANCH  29  30
ATOM     30  O   UNL d   1       4.765   0.521  -1.381  0.00  0.00    -0.314 OA
BRANCH  30  31
ATOM     31  C   UNL d   1       5.595   1.629  -1.540  0.00  0.00     0.255 C 
ATOM     32  O   UNL d   1       5.144   2.718  -1.986  0.00  0.00    -0.266 OA
ATOM     33  C   UNL d   1       7.032   1.524  -1.178  0.00  0.00     0.126 C 
ENDBRANCH  30  31
ENDBRANCH  29  30
ENDBRANCH  27  29
ENDBRANCH   1  27
BRANCH   7  34
ATOM     34  O   UNL d   1      -1.291   1.923  -1.651  0.00  0.00    -0.395 OA
ATOM     35  HO  UNL d   1      -2.147   2.335  -1.638  1.00  0.00     0.210 HD
ENDBRANCH   7  34
TORSDOF 8
