REMARK  6 active torsions:
REMARK  status: ('A' for Active; 'I' for Inactive)
REMARK    1  A    between atoms: N_1  and  C_5 
REMARK    2  A    between atoms: C_5  and  C_6 
REMARK    3  A    between atoms: C_6  and  C_7 
REMARK    4  A    between atoms: CA_8  and  C_7 
REMARK    5  A    between atoms: CA_8  and  N_9 
REMARK    6  A    between atoms: CA_8  and  C_13 
ROOT
ATOM      1  CA  UNL d   1      -0.858  -0.812   0.424  0.00  0.00     0.283 C 
ENDROOT
BRANCH   1   2
ATOM      2  C   UNL d   1       0.166  -1.147  -0.652  0.00  0.00     0.045 C 
BRANCH   2   3
ATOM      3  C   UNL d   1       1.587  -1.091  -0.104  0.00  0.00     0.030 C 
BRANCH   3   4
ATOM      4  C   UNL d   1       2.117   0.334  -0.071  0.00  0.00     0.230 C 
BRANCH   4   5
ATOM      5  N   UNL d   1       2.359   0.806  -1.424  0.00  0.00    -0.079 N 
ATOM      6  HN3 UNL d   1       2.976   0.181  -1.942  1.00  0.00     0.274 HD
ATOM      7  HN2 UNL d   1       1.531   0.721  -2.012  1.00  0.00     0.274 HD
ATOM      8  HN1 UNL d   1       2.715   1.762  -1.401  1.00  0.00     0.274 HD
ENDBRANCH   4   5
ENDBRANCH   3   4
ENDBRANCH   2   3
ENDBRANCH   1   2
BRANCH   1   9
ATOM      9  N   UNL d   1      -2.136  -1.407   0.078  0.00  0.00    -0.065 N 
ATOM     10  HN3 UNL d   1      -2.450  -1.132  -0.853  1.00  0.00     0.275 HD
ATOM     11  HN2 UNL d   1      -2.062  -2.411  -0.085  1.00  0.00     0.275 HD
ATOM     12  HN1 UNL d   1      -2.821  -1.182   0.799  1.00  0.00     0.275 HD
ENDBRANCH   1   9
BRANCH   1  13
ATOM     13  C   UNL d   1      -1.019   0.665   0.573  0.00  0.00     0.204 C 
ATOM     14  O   UNL d   1      -1.440   1.439  -0.502  0.00  0.00    -0.646 OA
ATOM     15  OXT UNL d   1      -0.776   1.212   1.679  0.00  0.00    -0.646 OA
ENDBRANCH   1  13
TORSDOF 6
