REMARK  6 active torsions:
REMARK  status: ('A' for Active; 'I' for Inactive)
REMARK    1  A    between atoms: C_4  and  N_2 
REMARK    2  A    between atoms: C_4  and  C_5 
REMARK    3  A    between atoms: C_4  and  C_18 
REMARK    4  A    between atoms: C_5  and  C_6 
REMARK    5  A    between atoms: C_6  and  O_7 
REMARK    6  A    between atoms: O_7  and  C_8 
ROOT
ATOM      1  C   UNL d   1       0.391  -1.351   0.602  0.00  0.00     0.181 C 
ENDROOT
BRANCH   1   2
ATOM      2  C   UNL d   1       1.025  -1.457  -0.780  0.00  0.00     0.078 C 
BRANCH   2   3
ATOM      3  C   UNL d   1       2.558  -1.296  -0.760  0.00  0.00    -0.001 C 
BRANCH   3   4
ATOM      4  N   UNL d   1       3.341  -2.487  -0.389  0.00  0.00    -0.294 NA
ATOM      5  C   UNL d   1       2.866  -3.088   0.851  0.00  0.00     0.116 C 
ATOM      6  C   UNL d   1       3.189  -3.480  -1.440  0.00  0.00     0.116 C 
ENDBRANCH   3   4
BRANCH   3   7
ATOM      7  C   UNL d   1       3.049  -0.033  -0.113  0.00  0.00    -0.019 A 
ATOM      8  C   UNL d   1       3.227   0.056   1.276  0.00  0.00     0.013 A 
ATOM      9  C   UNL d   1       3.655   1.254   1.855  0.00  0.00     0.001 A 
ATOM     10  C   UNL d   1       3.903   2.369   1.050  0.00  0.00     0.000 A 
ATOM     11  C   UNL d   1       3.721   2.287  -0.334  0.00  0.00     0.001 A 
ATOM     12  C   UNL d   1       3.292   1.089  -0.913  0.00  0.00     0.013 A 
ENDBRANCH   3   7
ENDBRANCH   2   3
ENDBRANCH   1   2
BRANCH   1  13
ATOM     13  O   UNL d   1      -1.017  -1.187   0.481  0.00  0.00    -0.350 OA
BRANCH  13  14
ATOM     14  C   UNL d   1      -1.617   0.036   0.147  0.00  0.00     0.079 A 
ATOM     15  C   UNL d   1      -0.845   1.197  -0.030  0.00  0.00     0.037 A 
ATOM     16  C   UNL d   1      -1.450   2.412  -0.360  0.00  0.00     0.004 A 
ATOM     17  C   UNL d   1      -2.835   2.486  -0.516  0.00  0.00     0.012 A 
ATOM     18  C   UNL d   1      -3.620   1.345  -0.342  0.00  0.00    -0.023 A 
ATOM     19  C   UNL d   1      -5.007   1.423  -0.499  0.00  0.00     0.012 A 
ATOM     20  C   UNL d   1      -3.013   0.110  -0.008  0.00  0.00     0.007 A 
ATOM     21  C   UNL d   1      -5.796   0.282  -0.325  0.00  0.00     0.001 A 
ATOM     22  C   UNL d   1      -5.202  -0.940   0.005  0.00  0.00     0.001 A 
ATOM     23  C   UNL d   1      -3.816  -1.026   0.163  0.00  0.00     0.015 A 
ENDBRANCH  13  14
ENDBRANCH   1  13
TORSDOF 6
