REMARK  5 active torsions:
REMARK  status: ('A' for Active; 'I' for Inactive)
REMARK    1  A    between atoms: C_3  and  C_4 
REMARK       I    between atoms: C_4  and  N_6 
REMARK    2  A    between atoms: C_9  and  N_11 
REMARK    3  A    between atoms: N_21  and  C_22 
REMARK    4  A    between atoms: C_25  and  O_26 
REMARK    5  A    between atoms: O_26  and  C_27 
ROOT
ATOM      1  C   UNL d   1       5.568   3.056   3.266  0.00  0.00     0.112 C 
ATOM      2  C   UNL d   1       5.122   1.665   3.346  0.00  0.00    -0.101 C 
ATOM      3  C   UNL d   1       4.752   0.520   3.413  0.00  0.00    -0.006 C 
ENDROOT
BRANCH   3   4
ATOM      4  C   UNL d   1       4.304  -0.846   3.496  0.00  0.00     0.298 C 
ATOM      5  O   UNL d   1       4.252  -1.405   4.623  0.00  0.00    -0.258 OA
ATOM      6  N   UNL d   1       3.914  -1.563   2.318  0.00  0.00    -0.339 N 
ATOM      7  C   UNL d   1       3.418  -2.924   2.356  0.00  0.00     0.129 A 
ATOM      8  C   UNL d   1       3.942  -0.992   0.987  0.00  0.00     0.152 A 
ATOM      9  C   UNL d   1       3.043  -3.275   0.927  0.00  0.00     0.047 A 
ATOM     10  C   UNL d   1       3.430  -2.081   0.059  0.00  0.00     0.116 A 
BRANCH  10  11
ATOM     11  N   UNL d   1       2.283  -1.606  -0.711  0.00  0.00    -0.276 N 
ATOM     12  C   UNL d   1       2.186  -1.525  -2.047  0.00  0.00     0.144 A 
ATOM     13  N   UNL d   1       3.139  -1.848  -2.955  0.00  0.00    -0.336 N 
ATOM     14  C   UNL d   1       0.970  -1.023  -2.404  0.00  0.00     0.130 A 
ATOM     15  C   UNL d   1       2.861  -1.649  -4.277  0.00  0.00     0.183 A 
ATOM     16  HN  UNL d   1       4.037  -2.229  -2.659  1.00  0.00     0.168 HD
ATOM     17  N   UNL d   1       1.657  -1.122  -4.664  0.00  0.00    -0.339 N 
ATOM     18  C   UNL d   1       0.694  -0.792  -3.753  0.00  0.00     0.148 A 
ATOM     19  HN  UNL d   1       1.475  -0.973  -5.657  1.00  0.00     0.167 HD
ATOM     20  N   UNL d   1      -0.514  -0.181  -4.189  0.00  0.00    -0.080 NA
ATOM     21  N   UNL d   1       0.250  -0.773  -1.284  0.00  0.00    -0.257 N 
ATOM     22  C   UNL d   1       1.085  -1.138  -0.273  0.00  0.00     0.336 A 
ATOM     23  O   UNL d   1       0.772  -1.067   0.948  0.00  0.00    -0.246 OA
BRANCH  21  24
ATOM     24  C   UNL d   1      -1.099  -0.298  -1.151  0.00  0.00     0.044 A 
ATOM     25  C   UNL d   1      -1.397   0.724  -0.240  0.00  0.00     0.033 A 
ATOM     26  C   UNL d   1      -2.714   1.162  -0.080  0.00  0.00     0.039 A 
ATOM     27  C   UNL d   1      -3.755   0.576  -0.818  0.00  0.00     0.076 A 
ATOM     28  C   UNL d   1      -3.454  -0.450  -1.720  0.00  0.00     0.039 A 
ATOM     29  C   UNL d   1      -2.137  -0.890  -1.881  0.00  0.00     0.033 A 
BRANCH  27  30
ATOM     30  O   UNL d   1      -5.092   0.993  -0.709  0.00  0.00    -0.311 OA
BRANCH  30  31
ATOM     31  C   UNL d   1      -5.642   1.836   0.271  0.00  0.00     0.076 A 
ATOM     32  C   UNL d   1      -6.943   2.315   0.079  0.00  0.00     0.037 A 
ATOM     33  C   UNL d   1      -7.545   3.142   1.033  0.00  0.00     0.003 A 
ATOM     34  C   UNL d   1      -6.848   3.493   2.192  0.00  0.00     0.000 A 
ATOM     35  C   UNL d   1      -5.551   3.016   2.398  0.00  0.00     0.003 A 
ATOM     36  C   UNL d   1      -4.952   2.190   1.443  0.00  0.00     0.037 A 
ENDBRANCH  30  31
ENDBRANCH  27  30
ENDBRANCH  21  24
ENDBRANCH  10  11
ENDBRANCH   3   4
TORSDOF 5
