REMARK  6 active torsions:
REMARK  status: ('A' for Active; 'I' for Inactive)
REMARK    1  A    between atoms: C_5  and  O_6 
REMARK    2  A    between atoms: C_5  and  C_8 
REMARK    3  A    between atoms: C_8  and  C_10 
REMARK    4  A    between atoms: C_10  and  O_11 
REMARK    5  A    between atoms: O_11  and  C_12 
REMARK    6  A    between atoms: C_18  and  O_19 
ROOT
ATOM      1  C   UNL d   1       0.006   1.484   0.147  0.00  0.00     0.005 C 
ATOM      2  C   UNL d   1       0.473   2.927   0.142  0.00  0.00     0.013 C 
ATOM      3  C   UNL d   1       1.978   2.828   0.395  0.00  0.00     0.025 C 
ATOM      4  C   UNL d   1       2.375   3.614   1.636  0.00  0.00     0.013 C 
ATOM      5  C   UNL d   1       2.339   1.319   0.461  0.00  0.00     0.131 C 
ATOM      6  C   UNL d   1       1.186   0.659  -0.323  0.00  0.00     0.001 C 
ATOM      7  C   UNL d   1       1.394   0.814  -1.841  0.00  0.00     0.019 C 
ATOM      8  C   UNL d   1       0.914  -0.813   0.028  0.00  0.00     0.048 C 
ATOM      9  C   UNL d   1      -0.420  -1.309  -0.569  0.00  0.00     0.160 C 
ATOM     10  C   UNL d   1      -1.625  -0.374  -0.228  0.00  0.00     0.147 C 
ATOM     11  F   UNL d   1      -1.813  -0.476   1.147  0.00  0.00    -0.238 F 
ATOM     12  C   UNL d   1      -1.302   1.116  -0.552  0.00  0.00     0.035 C 
ATOM     13  C   UNL d   1      -2.434   2.027  -0.058  0.00  0.00     0.013 C 
ATOM     14  C   UNL d   1      -3.764   1.663  -0.711  0.00  0.00     0.036 C 
ATOM     15  C   UNL d   1      -4.045   0.207  -0.517  0.00  0.00    -0.061 C 
ATOM     16  C   UNL d   1      -5.247  -0.165  -0.071  0.00  0.00     0.058 C 
ATOM     17  C   UNL d   1      -5.559  -1.581   0.139  0.00  0.00     0.172 C 
ATOM     18  O   UNL d   1      -6.707  -1.928   0.518  0.00  0.00    -0.289 OA
ATOM     19  C   UNL d   1      -4.513  -2.586  -0.064  0.00  0.00     0.052 C 
ATOM     20  C   UNL d   1      -3.315  -2.224  -0.526  0.00  0.00    -0.006 C 
ATOM     21  C   UNL d   1      -2.966  -0.798  -0.914  0.00  0.00     0.036 C 
ATOM     22  C   UNL d   1      -2.867  -0.755  -2.437  0.00  0.00     0.028 C 
ENDROOT
BRANCH   5  23
ATOM     23  O   UNL d   1       2.314   0.878   1.793  0.00  0.00    -0.381 OA
ATOM     24  HO  UNL d   1       2.535  -0.045   1.834  1.00  0.00     0.211 HD
ENDBRANCH   5  23
BRANCH   5  25
ATOM     25  C   UNL d   1       3.711   1.029  -0.119  0.00  0.00     0.186 C 
ATOM     26  O   UNL d   1       4.441   1.937  -0.485  0.00  0.00    -0.292 OA
BRANCH  25  27
ATOM     27  C   UNL d   1       4.212  -0.377  -0.199  0.00  0.00     0.260 C 
BRANCH  27  28
ATOM     28  O   UNL d   1       4.839  -0.731   1.024  0.00  0.00    -0.314 OA
BRANCH  28  29
ATOM     29  C   UNL d   1       5.364  -2.005   1.239  0.00  0.00     0.255 C 
ATOM     30  C   UNL d   1       6.010  -2.320   2.540  0.00  0.00     0.126 C 
ATOM     31  O   UNL d   1       5.296  -2.892   0.347  0.00  0.00    -0.266 OA
ENDBRANCH  28  29
ENDBRANCH  27  28
ENDBRANCH  25  27
ENDBRANCH   5  25
BRANCH   9  32
ATOM     32  O   UNL d   1      -0.274  -1.524  -1.942  0.00  0.00    -0.392 OA
ATOM     33  HO  UNL d   1      -1.095  -1.829  -2.309  1.00  0.00     0.210 HD
ENDBRANCH   9  32
TORSDOF 6
