REMARK  9 active torsions:
REMARK  status: ('A' for Active; 'I' for Inactive)
REMARK    1  A    between atoms: C_3  and  S_9 
REMARK    2  A    between atoms: S_9  and  C_10 
REMARK    3  A    between atoms: C_10  and  C_11 
REMARK    4  A    between atoms: CA_12  and  C_34 
REMARK    5  A    between atoms: CA_15  and  N_18 
REMARK       I    between atoms: N_18  and  C_20 
REMARK    6  A    between atoms: C_20  and  C_22 
REMARK    7  A    between atoms: C_22  and  C_23 
REMARK    8  A    between atoms: C_22  and  O_29 
REMARK    9  A    between atoms: O_29  and  C_30 
ROOT
ATOM      1  C   UNL d   1       3.163   1.801   0.589  0.00  0.00    -0.027 C 
ATOM      2  CA  UNL d   1       2.083   2.598   0.400  0.00  0.00     0.119 C 
ATOM      3  N   UNL d   1       0.869   2.219   1.056  0.00  0.00    -0.293 N 
ATOM      4  C   UNL d   1       0.606   1.213   2.054  0.00  0.00     0.187 A 
ATOM      5  CA  UNL d   1      -0.813   1.177   1.772  0.00  0.00     0.210 A 
ATOM      6  C   UNL d   1      -0.589   2.307   0.812  0.00  0.00     0.251 A 
ATOM      7  O   UNL d   1      -1.334   2.997   0.069  0.00  0.00    -0.271 OA
ATOM      8  S   UNL d   1       1.601  -0.266   1.644  0.00  0.00    -0.136 SA
ATOM      9  C   UNL d   1       3.146   0.718   1.642  0.00  0.00     0.113 C 
ENDROOT
BRANCH   5  10
ATOM     10  N   UNL d   1      -1.215  -0.016   1.034  0.00  0.00    -0.343 N 
ATOM     11  C   UNL d   1      -2.560  -0.241   0.613  0.00  0.00     0.252 C 
ATOM     12  O   UNL d   1      -3.474   0.571   0.924  0.00  0.00    -0.270 OA
ATOM     13  HN  UNL d   1      -0.508  -0.717   0.812  1.00  0.00     0.163 HD
BRANCH  11  14
ATOM     14  C   UNL d   1      -2.879  -1.466  -0.186  0.00  0.00     0.256 C 
BRANCH  14  15
ATOM     15  C   UNL d   1      -3.524  -2.510   0.669  0.00  0.00    -0.020 A 
ATOM     16  C   UNL d   1      -4.860  -2.386   1.080  0.00  0.00     0.010 A 
ATOM     17  C   UNL d   1      -5.437  -3.364   1.895  0.00  0.00     0.001 A 
ATOM     18  C   UNL d   1      -4.683  -4.467   2.304  0.00  0.00     0.000 A 
ATOM     19  C   UNL d   1      -3.350  -4.592   1.901  0.00  0.00     0.001 A 
ATOM     20  C   UNL d   1      -2.772  -3.614   1.086  0.00  0.00     0.010 A 
ENDBRANCH  14  15
BRANCH  14  21
ATOM     21  O   UNL d   1      -3.705  -1.151  -1.304  0.00  0.00    -0.308 OA
BRANCH  21  22
ATOM     22  C   UNL d   1      -3.212  -0.500  -2.438  0.00  0.00     0.399 C 
ATOM     23  O   UNL d   1      -1.999  -0.174  -2.529  0.00  0.00    -0.276 OA
ENDBRANCH  21  22
ENDBRANCH  14  21
ENDBRANCH  11  14
ENDBRANCH   5  10
BRANCH   2  24
ATOM     24  C   UNL d   1       2.086   3.781  -0.497  0.00  0.00     0.227 C 
ATOM     25  O   UNL d   1       3.164   4.325  -0.857  0.00  0.00    -0.643 OA
ATOM     26  OXT UNL d   1       0.887   4.344  -0.913  0.00  0.00    -0.643 OA
ENDBRANCH   2  24
BRANCH   1  27
ATOM     27  C   UNL d   1       4.446   1.948  -0.173  0.00  0.00     0.120 C 
BRANCH  27  28
ATOM     28  S   UNL d   1       4.264   1.502  -1.937  0.00  0.00    -0.087 SA
BRANCH  28  29
ATOM     29  C   UNL d   1       3.934  -0.232  -1.619  0.00  0.00     0.175 A 
ATOM     30  N   UNL d   1       2.722  -0.803  -1.623  0.00  0.00    -0.262 N 
ATOM     31  C   UNL d   1       1.435  -0.185  -1.891  0.00  0.00     0.181 C 
ATOM     32  N   UNL d   1       2.911  -2.084  -1.369  0.00  0.00    -0.223 N 
ATOM     33  N   UNL d   1       4.211  -2.293  -1.213  0.00  0.00    -0.005 NA
ATOM     34  HN  UNL d   1       2.181  -2.793  -1.304  1.00  0.00     0.206 HD
ATOM     35  N   UNL d   1       4.879  -1.155  -1.367  0.00  0.00    -0.261 N 
ATOM     36  HN  UNL d   1       5.887  -1.013  -1.308  1.00  0.00     0.186 HD
ENDBRANCH  28  29
ENDBRANCH  27  28
ENDBRANCH   1  27
TORSDOF 9
