REMARK  4 active torsions:
REMARK  status: ('A' for Active; 'I' for Inactive)
REMARK    1  A    between atoms: C_2  and  N_3 
REMARK    2  A    between atoms: C_6  and  N_11 
REMARK    3  A    between atoms: N_11  and  S_13 
REMARK    4  A    between atoms: S_13  and  C_16 
ROOT
ATOM      1  N   UNL d   1       0.182  -1.898   1.162  0.00  0.00    -0.266 N 
ATOM      2  HN  UNL d   1       0.216  -2.346   2.077  1.00  0.00     0.180 HD
ENDROOT
BRANCH   1   3
ATOM      3  C   UNL d   1       1.212  -0.973   0.812  0.00  0.00     0.119 A 
ATOM      4  C   UNL d   1       2.222  -0.692   1.728  0.00  0.00     0.066 A 
ATOM      5  C   UNL d   1       3.213   0.218   1.366  0.00  0.00     0.099 A 
ATOM      6  N   UNL d   1       3.188   0.814   0.142  0.00  0.00    -0.310 N 
ATOM      7  C   UNL d   1       2.186   0.526  -0.743  0.00  0.00     0.327 A 
ATOM      8  N   UNL d   1       1.214  -0.360  -0.402  0.00  0.00    -0.294 N 
ATOM      9  O   UNL d   1       2.153   1.074  -1.877  0.00  0.00    -0.246 OA
ATOM     10  HN  UNL d   1       0.472  -0.570  -1.070  1.00  0.00     0.172 HD
BRANCH   6  11
ATOM     11  C   UNL d   1       4.237   1.768  -0.190  0.00  0.00     0.128 C 
ATOM     12  C   UNL d   1       3.824   3.168   0.228  0.00  0.00     0.027 C 
ENDBRANCH   6  11
ENDBRANCH   1   3
BRANCH   1  13
ATOM     13  S   UNL d   1      -1.124  -2.289   0.093  0.00  0.00     0.264 S 
ATOM     14  O   UNL d   1      -2.079  -3.216   0.791  0.00  0.00    -0.200 OA
ATOM     15  O   UNL d   1      -0.576  -2.977  -1.125  0.00  0.00    -0.200 OA
BRANCH  13  16
ATOM     16  C   UNL d   1      -1.976  -0.825  -0.364  0.00  0.00     0.080 A 
ATOM     17  C   UNL d   1      -2.203  -0.531  -1.713  0.00  0.00     0.027 A 
ATOM     18  C   UNL d   1      -2.870   0.644  -2.072  0.00  0.00     0.028 A 
ATOM     19  C   UNL d   1      -3.311   1.528  -1.082  0.00  0.00     0.046 A 
ATOM     20  C   UNL d   1      -3.085   1.236   0.266  0.00  0.00     0.028 A 
ATOM     21  N   UNL d   1      -3.990   2.723  -1.447  0.00  0.00    -0.102 NA
ATOM     22  C   UNL d   1      -2.417   0.061   0.625  0.00  0.00     0.027 A 
ENDBRANCH  13  16
ENDBRANCH   1  13
TORSDOF 4
