REMARK  4 active torsions:
REMARK  status: ('A' for Active; 'I' for Inactive)
REMARK    1  A    between atoms: C_8  and  C_9 
REMARK    2  A    between atoms: C_9  and  O_10 
REMARK    3  A    between atoms: O_10  and  S_11 
REMARK    4  A    between atoms: S_11  and  N_12 
ROOT
ATOM      1  C   UNL d   1      -3.457   2.653  -1.104  0.00  0.00     0.078 C 
ATOM      2  C   UNL d   1      -2.591   1.818  -0.178  0.00  0.00     0.158 C 
ATOM      3  C   UNL d   1      -2.309   2.626   1.074  0.00  0.00     0.078 C 
ATOM      4  O   UNL d   1      -3.286   0.646   0.181  0.00  0.00    -0.346 OA
ATOM      5  C   UNL d   1      -2.551  -0.422  -0.334  0.00  0.00     0.180 C 
ATOM      6  C   UNL d   1      -2.005  -1.267   0.817  0.00  0.00     0.206 C 
ATOM      7  O   UNL d   1      -0.874  -0.640   1.373  0.00  0.00    -0.348 OA
ATOM      8  C   UNL d   1       0.234  -0.805   0.501  0.00  0.00     0.219 C 
ATOM      9  O   UNL d   1       0.678  -2.130   0.540  0.00  0.00    -0.315 OA
ATOM     10  C   UNL d   1       0.606  -2.615  -0.783  0.00  0.00     0.161 C 
ATOM     11  C   UNL d   1      -0.168  -3.918  -0.786  0.00  0.00     0.078 C 
ATOM     12  C   UNL d   1       2.009  -2.891  -1.296  0.00  0.00     0.078 C 
ATOM     13  O   UNL d   1      -0.035  -1.702  -1.644  0.00  0.00    -0.342 OA
ATOM     14  C   UNL d   1      -0.079  -0.491  -0.958  0.00  0.00     0.221 C 
ATOM     15  C   UNL d   1      -1.443   0.182  -1.164  0.00  0.00     0.191 C 
ATOM     16  O   UNL d   1      -1.370   1.527  -0.815  0.00  0.00    -0.345 OA
ENDROOT
BRANCH   8  17
ATOM     17  C   UNL d   1       1.348   0.118   0.989  0.00  0.00     0.263 C 
BRANCH  17  18
ATOM     18  O   UNL d   1       2.514  -0.054   0.234  0.00  0.00    -0.254 OA
BRANCH  18  19
ATOM     19  S   UNL d   1       3.026   1.498  -0.182  0.00  0.00     0.355 S 
ATOM     20  O   UNL d   1       1.966   2.195  -0.989  0.00  0.00    -0.176 OA
ATOM     21  O   UNL d   1       3.324   2.295   1.058  0.00  0.00    -0.176 OA
BRANCH  19  22
ATOM     22  N   UNL d   1       4.463   1.376  -1.131  0.00  0.00    -0.306 N 
ATOM     23  HN2 UNL d   1       4.918   0.500  -1.389  1.00  0.00     0.171 HD
ATOM     24  HN1 UNL d   1       4.773   2.315  -1.382  1.00  0.00     0.171 HD
ENDBRANCH  19  22
ENDBRANCH  18  19
ENDBRANCH  17  18
ENDBRANCH   8  17
TORSDOF 4
