REMARK  9 active torsions:
REMARK  status: ('A' for Active; 'I' for Inactive)
REMARK    1  A    between atoms: C_3  and  O_40 
REMARK    2  A    between atoms: C_4  and  N_42 
REMARK    3  A    between atoms: C_6  and  O_8 
REMARK    4  A    between atoms: C_9  and  O_8 
REMARK    5  A    between atoms: C_11  and  C_35 
REMARK    6  A    between atoms: C_11  and  O_38 
REMARK    7  A    between atoms: C_15  and  O_33 
REMARK    8  A    between atoms: C_18  and  O_19 
REMARK    9  A    between atoms: C_27  and  O_31 
ROOT
ATOM      1  C   UNL d   1       1.931   0.825  -1.003  0.00  0.00     0.164 C 
ATOM      2  C   UNL d   1       2.254   2.102  -1.790  0.00  0.00     0.083 C 
ATOM      3  C   UNL d   1       1.807   3.424  -1.123  0.00  0.00     0.124 C 
ATOM      4  C   UNL d   1       1.000   3.229   0.174  0.00  0.00     0.088 C 
ATOM      5  C   UNL d   1       0.060   2.062   0.086  0.00  0.00    -0.009 A 
ATOM      6  C   UNL d   1       0.525   0.872  -0.475  0.00  0.00     0.014 A 
ATOM      7  C   UNL d   1      -0.299  -0.257  -0.521  0.00  0.00     0.090 A 
ATOM      8  C   UNL d   1      -1.619  -0.198  -0.011  0.00  0.00     0.066 A 
ATOM      9  C   UNL d   1      -2.092   1.014   0.553  0.00  0.00     0.066 A 
ATOM     10  C   UNL d   1      -1.236   2.140   0.605  0.00  0.00     0.088 A 
ATOM     11  C   UNL d   1      -3.478   1.078   1.091  0.00  0.00     0.197 A 
ATOM     12  O   UNL d   1      -3.932   2.155   1.564  0.00  0.00    -0.286 OA
ATOM     13  C   UNL d   1      -4.344  -0.117   1.072  0.00  0.00     0.032 A 
ATOM     14  C   UNL d   1      -5.635  -0.036   1.611  0.00  0.00     0.017 A 
ATOM     15  C   UNL d   1      -6.477  -1.143   1.607  0.00  0.00     0.004 A 
ATOM     16  C   UNL d   1      -6.037  -2.345   1.061  0.00  0.00     0.038 A 
ATOM     17  C   UNL d   1      -4.750  -2.457   0.512  0.00  0.00     0.083 A 
ATOM     18  C   UNL d   1      -3.888  -1.330   0.514  0.00  0.00     0.062 A 
ATOM     19  C   UNL d   1      -2.517  -1.389  -0.061  0.00  0.00     0.200 A 
ATOM     20  O   UNL d   1      -2.115  -2.454  -0.603  0.00  0.00    -0.286 OA
ENDROOT
BRANCH   1  21
ATOM     21  O   UNL d   1       2.835   0.671   0.053  0.00  0.00    -0.351 OA
BRANCH  21  22
ATOM     22  C   UNL d   1       3.375  -0.604  -0.120  0.00  0.00     0.263 C 
ATOM     23  C   UNL d   1       3.228  -1.412   1.174  0.00  0.00     0.096 C 
ATOM     24  C   UNL d   1       4.261  -2.542   1.233  0.00  0.00     0.219 C 
ATOM     25  C   UNL d   1       4.681  -2.995  -0.169  0.00  0.00     0.177 C 
ATOM     26  C   UNL d   1       5.172  -1.764  -0.977  0.00  0.00     0.151 C 
ATOM     27  C   UNL d   1       4.973  -1.883  -2.483  0.00  0.00     0.042 C 
ATOM     28  O   UNL d   1       4.731  -0.506  -0.489  0.00  0.00    -0.354 OA
BRANCH  24  29
ATOM     29  N   UNL d   1       3.741  -3.657   2.005  0.00  0.00    -0.072 N 
ATOM     30  HN3 UNL d   1       2.980  -4.130   1.518  1.00  0.00     0.274 HD
ATOM     31  HN2 UNL d   1       4.405  -4.431   2.042  1.00  0.00     0.274 HD
ATOM     32  HN1 UNL d   1       3.462  -3.355   2.938  1.00  0.00     0.274 HD
ENDBRANCH  24  29
BRANCH  25  33
ATOM     33  O   UNL d   1       3.605  -3.622  -0.809  0.00  0.00    -0.391 OA
ATOM     34  HO  UNL d   1       3.305  -4.375  -0.315  1.00  0.00     0.210 HD
ENDBRANCH  25  33
ENDBRANCH  21  22
ENDBRANCH   1  21
BRANCH   7  35
ATOM     35  O   UNL d   1       0.205  -1.431  -1.073  0.00  0.00    -0.359 OA
ATOM     36  HO  UNL d   1      -0.354  -2.198  -1.104  1.00  0.00     0.217 HD
ENDBRANCH   7  35
BRANCH   3  37
ATOM     37  C   UNL d   1       3.034   4.242  -0.803  0.00  0.00     0.157 C 
ATOM     38  O   UNL d   1       3.874   3.803  -0.033  0.00  0.00    -0.295 OA
ATOM     39  C   UNL d   1       3.253   5.590  -1.412  0.00  0.00     0.094 C 
ENDBRANCH   3  37
BRANCH   3  40
ATOM     40  O   UNL d   1       1.000   4.110  -2.034  0.00  0.00    -0.382 OA
ATOM     41  HO  UNL d   1       0.725   4.922  -1.625  1.00  0.00     0.211 HD
ENDBRANCH   3  40
BRANCH  10  42
ATOM     42  O   UNL d   1      -1.661   3.339   1.170  0.00  0.00    -0.359 OA
ATOM     43  HO  UNL d   1      -2.542   3.392   1.523  1.00  0.00     0.217 HD
ENDBRANCH  10  42
BRANCH  17  44
ATOM     44  O   UNL d   1      -4.325  -3.675  -0.032  0.00  0.00    -0.355 OA
ATOM     45  C   UNL d   1      -5.143  -4.838  -0.064  0.00  0.00     0.210 C 
ENDBRANCH  17  44
TORSDOF 9
