REMARK  0 active torsions:
REMARK  status: ('A' for Active; 'I' for Inactive)
ROOT
ATOM      1  C   UNL d   1       3.524   1.120   0.791  0.00  0.00     0.024 C 
ATOM      2  C   UNL d   1       2.689   0.504  -0.334  0.00  0.00     0.021 C 
ATOM      3  C   UNL d   1       1.845   1.571  -1.029  0.00  0.00     0.018 C 
ATOM      4  C   UNL d   1       0.805   2.153  -0.041  0.00  0.00     0.007 C 
ATOM      5  C   UNL d   1      -0.055   1.068   0.665  0.00  0.00     0.007 C 
ATOM      6  C   UNL d   1       0.827  -0.069   1.251  0.00  0.00     0.000 C 
ATOM      7  C   UNL d   1       1.751  -0.578   0.153  0.00  0.00     0.006 C 
ATOM      8  C   UNL d   1       2.586  -1.836   0.324  0.00  0.00     0.013 C 
ATOM      9  C   UNL d   1       3.563  -1.756  -0.852  0.00  0.00     0.079 C 
ATOM     10  C   UNL d   1       3.582  -0.301  -1.201  0.00  0.00     0.135 C 
ATOM     11  O   UNL d   1       4.295   0.170  -2.073  0.00  0.00    -0.297 OA
ATOM     12  C   UNL d   1       0.032  -1.173   1.952  0.00  0.00     0.043 C 
ATOM     13  C   UNL d   1      -1.201  -1.583   1.214  0.00  0.00    -0.060 C 
ATOM     14  C   UNL d   1      -1.692  -2.796   1.447  0.00  0.00     0.019 C 
ATOM     15  C   UNL d   1      -1.998  -0.546   0.524  0.00  0.00    -0.036 C 
ATOM     16  C   UNL d   1      -3.335  -0.655   0.449  0.00  0.00     0.063 C 
ATOM     17  C   UNL d   1      -4.136   0.404  -0.172  0.00  0.00     0.172 C 
ATOM     18  O   UNL d   1      -5.374   0.252  -0.338  0.00  0.00    -0.289 OA
ATOM     19  C   UNL d   1      -3.490   1.670  -0.523  0.00  0.00     0.052 C 
ATOM     20  C   UNL d   1      -2.160   1.767  -0.481  0.00  0.00    -0.008 C 
ATOM     21  C   UNL d   1      -1.260   0.583  -0.190  0.00  0.00     0.006 C 
ATOM     22  C   UNL d   1      -0.799   0.034  -1.536  0.00  0.00     0.025 C 
ENDROOT
TORSDOF 0
