REMARK  2 active torsions:
REMARK  status: ('A' for Active; 'I' for Inactive)
REMARK    1  A    between atoms: C_9  and  O_23 
REMARK    2  A    between atoms: C_18  and  O_21 
ROOT
ATOM      1  C   UNL d   1      -2.578   0.633   1.756  0.00  0.00     0.020 C 
ATOM      2  C   UNL d   1      -2.219   0.464   0.279  0.00  0.00     0.003 C 
ATOM      3  C   UNL d   1      -1.312   1.641  -0.143  0.00  0.00     0.014 C 
ATOM      4  C   UNL d   1       0.110   1.554   0.426  0.00  0.00     0.010 C 
ATOM      5  C   UNL d   1       0.711   0.138   0.386  0.00  0.00     0.023 C 
ATOM      6  C   UNL d   1       2.177   0.128   0.008  0.00  0.00    -0.047 A 
ATOM      7  C   UNL d   1       3.028   1.143   0.471  0.00  0.00     0.011 A 
ATOM      8  C   UNL d   1       4.398   1.101   0.201  0.00  0.00     0.037 A 
ATOM      9  C   UNL d   1       4.934   0.033  -0.521  0.00  0.00     0.066 A 
ATOM     10  C   UNL d   1       4.104  -0.999  -0.963  0.00  0.00     0.044 A 
ATOM     11  C   UNL d   1       2.734  -0.972  -0.688  0.00  0.00    -0.049 A 
ATOM     12  C   UNL d   1       1.876  -2.087  -1.218  0.00  0.00     0.039 C 
ATOM     13  C   UNL d   1       0.552  -2.198  -0.470  0.00  0.00     0.010 C 
ATOM     14  C   UNL d   1      -0.127  -0.834  -0.455  0.00  0.00    -0.001 C 
ATOM     15  C   UNL d   1      -1.535  -0.913   0.143  0.00  0.00     0.002 C 
ATOM     16  C   UNL d   1      -2.456  -1.795  -0.689  0.00  0.00     0.010 C 
ATOM     17  C   UNL d   1      -3.801  -1.100  -0.697  0.00  0.00     0.052 C 
ATOM     18  C   UNL d   1      -3.475   0.375  -0.631  0.00  0.00     0.128 C 
ATOM     19  C   UNL d   1      -4.639   1.130  -0.136  0.00  0.00    -0.078 C 
ATOM     20  C   UNL d   1      -5.593   1.749   0.268  0.00  0.00     0.015 C 
ENDROOT
BRANCH  18  21
ATOM     21  O   UNL d   1      -3.184   0.812  -1.929  0.00  0.00    -0.377 OA
ATOM     22  HO  UNL d   1      -3.952   0.758  -2.486  1.00  0.00     0.211 HD
ENDBRANCH  18  21
BRANCH   9  23
ATOM     23  O   UNL d   1       6.294  -0.004  -0.795  0.00  0.00    -0.361 OA
ATOM     24  HO  UNL d   1       6.660  -0.731  -1.287  1.00  0.00     0.217 HD
ENDBRANCH   9  23
TORSDOF 2
