REMARK  5 active torsions:
REMARK  status: ('A' for Active; 'I' for Inactive)
REMARK    1  A    between atoms: C_3  and  C_6 
REMARK    2  A    between atoms: C_6  and  C_8 
REMARK    3  A    between atoms: C_11  and  O_16 
REMARK    4  A    between atoms: O_16  and  C_17 
REMARK    5  A    between atoms: C_17  and  C_18 
ROOT
ATOM      1  C   UNL d   1      -0.845  -0.005  -0.712  0.00  0.00     0.039 A 
ATOM      2  C   UNL d   1      -0.013   0.661   0.196  0.00  0.00     0.020 A 
ATOM      3  C   UNL d   1       1.256   0.171   0.494  0.00  0.00     0.039 A 
ATOM      4  C   UNL d   1       1.726  -0.998  -0.117  0.00  0.00     0.092 A 
ATOM      5  C   UNL d   1       0.905  -1.679  -1.030  0.00  0.00     0.090 A 
ATOM      6  C   UNL d   1      -0.381  -1.187  -1.334  0.00  0.00     0.072 A 
ATOM      7 CL   UNL d   1      -1.415  -2.088  -2.446  0.00  0.00    -0.081 Cl
ATOM      8 CL   UNL d   1       1.506  -3.155  -1.784  0.00  0.00    -0.080 Cl
ENDROOT
BRANCH   1   9
ATOM      9  C   UNL d   1      -2.170   0.578  -1.021  0.00  0.00     0.200 C 
ATOM     10  O   UNL d   1      -2.546   0.653  -2.222  0.00  0.00    -0.286 OA
BRANCH   9  11
ATOM     11  C   UNL d   1      -3.061   1.095   0.036  0.00  0.00     0.055 A 
ATOM     12  C   UNL d   1      -4.240   1.793  -0.185  0.00  0.00     0.023 A 
ATOM     13  C   UNL d   1      -4.908   2.130   1.002  0.00  0.00     0.009 A 
ATOM     14  C   UNL d   1      -4.274   1.698   2.164  0.00  0.00     0.050 A 
ATOM     15  S   UNL d   1      -2.876   0.892   1.693  0.00  0.00    -0.098 SA
ENDBRANCH   9  11
ENDBRANCH   1   9
BRANCH   4  16
ATOM     16  O   UNL d   1       3.000  -1.503   0.176  0.00  0.00    -0.339 OA
BRANCH  16  17
ATOM     17  C   UNL d   1       3.928  -0.844   1.031  0.00  0.00     0.288 C 
BRANCH  17  18
ATOM     18  C   UNL d   1       4.624   0.248   0.294  0.00  0.00     0.198 C 
ATOM     19  O   UNL d   1       5.543  -0.028  -0.521  0.00  0.00    -0.646 OA
ATOM     20  O   UNL d   1       4.241   1.569   0.484  0.00  0.00    -0.646 OA
ENDBRANCH  17  18
ENDBRANCH  16  17
ENDBRANCH   4  16
TORSDOF 5
