REMARK  9 active torsions:
REMARK  status: ('A' for Active; 'I' for Inactive)
REMARK    1  A    between atoms: C_2  and  N_20 
REMARK    2  A    between atoms: C_4  and  C_5 
REMARK    3  A    between atoms: C_4  and  N_20 
REMARK    4  A    between atoms: C_5  and  C_6 
REMARK    5  A    between atoms: C_5  and  O_18 
REMARK    6  A    between atoms: C_6  and  O_7 
REMARK    7  A    between atoms: O_7  and  C_8 
REMARK    8  A    between atoms: C_11  and  C_14 
REMARK    9  A    between atoms: C_14  and  C_15 
ROOT
ATOM      1  C   UNL d   1       1.663  -1.469   0.616  0.00  0.00     0.209 C 
ENDROOT
BRANCH   1   2
ATOM      2  C   UNL d   1       2.374  -0.155   0.342  0.00  0.00     0.168 C 
BRANCH   2   3
ATOM      3  C   UNL d   1       3.760  -0.442  -0.209  0.00  0.00     0.266 C 
BRANCH   3   4
ATOM      4  N   UNL d   1       4.533   0.788  -0.293  0.00  0.00    -0.069 N 
ATOM      5  HN2 UNL d   1       3.949   1.620  -0.376  1.00  0.00     0.277 HD
ATOM      6  HN1 UNL d   1       5.031   0.885  -1.177  1.00  0.00     0.277 HD
BRANCH   4   7
ATOM      7  C   UNL d   1       5.415   0.828   0.863  0.00  0.00     0.178 C 
ATOM      8  C   UNL d   1       4.875   1.808   1.885  0.00  0.00     0.039 C 
ATOM      9  C   UNL d   1       6.796   1.270   0.427  0.00  0.00     0.039 C 
ENDBRANCH   4   7
ENDBRANCH   3   4
ENDBRANCH   2   3
BRANCH   2  10
ATOM     10  O   UNL d   1       1.648   0.598  -0.583  0.00  0.00    -0.392 OA
ATOM     11  HO  UNL d   1       0.781   0.777  -0.238  1.00  0.00     0.210 HD
ENDBRANCH   2  10
ENDBRANCH   1   2
BRANCH   1  12
ATOM     12  O   UNL d   1       0.450  -1.238   1.326  0.00  0.00    -0.349 OA
BRANCH  12  13
ATOM     13  C   UNL d   1      -0.786  -1.072   0.693  0.00  0.00     0.068 A 
ATOM     14  C   UNL d   1      -0.928  -1.212  -0.697  0.00  0.00     0.037 A 
ATOM     15  C   UNL d   1      -2.178  -1.044  -1.299  0.00  0.00     0.010 A 
ATOM     16  C   UNL d   1      -3.296  -0.739  -0.516  0.00  0.00    -0.050 A 
ATOM     17  C   UNL d   1      -3.159  -0.596   0.869  0.00  0.00     0.010 A 
ATOM     18  C   UNL d   1      -1.908  -0.765   1.470  0.00  0.00     0.037 A 
BRANCH  16  19
ATOM     19  C   UNL d   1      -4.627  -0.540  -1.159  0.00  0.00     0.138 C 
BRANCH  19  20
ATOM     20  C   UNL d   1      -4.814   0.887  -1.548  0.00  0.00     0.235 C 
ATOM     21  O   UNL d   1      -4.453   1.281  -2.687  0.00  0.00    -0.277 OA
ATOM     22  N   UNL d   1      -5.367   1.811  -0.619  0.00  0.00    -0.062 NA
ENDBRANCH  19  20
ENDBRANCH  16  19
ENDBRANCH  12  13
ENDBRANCH   1  12
TORSDOF 9
