REMARK  Name = fda_7429
REMARK  4 active torsions:
REMARK  status: ('A' for Active; 'I' for Inactive)
REMARK    1  A    between atoms: C_3  and  C_18
REMARK    2  A    between atoms: C_7  and  N_8
REMARK    3  A    between atoms: N_8  and  C_9
REMARK    4  A    between atoms: C_10  and  C_15
REMARK                            x       y       z     vdW  Elec       q    Type
REMARK                         _______ _______ _______ _____ _____    ______ ____
ROOT
ATOM      1  C   UNL A   1       1.445   0.824   1.777  0.00  0.00    +0.032 C 
ATOM      2  C   UNL A   1       1.660   0.244   0.413  0.00  0.00    -0.003 A 
ATOM      3  C   UNL A   1       2.969   0.074  -0.101  0.00  0.00    +0.069 A 
ATOM      4  C   UNL A   1       3.134  -0.472  -1.381  0.00  0.00    +0.004 A 
ATOM      5  C   UNL A   1       2.030  -0.846  -2.145  0.00  0.00    +0.001 A 
ATOM      6  C   UNL A   1       0.744  -0.677  -1.636  0.00  0.00    +0.016 A 
ATOM      7  C   UNL A   1       0.543  -0.134  -0.360  0.00  0.00    +0.068 A 
ENDROOT
BRANCH   3   8
ATOM      8  C   UNL A   1       4.190   0.466   0.697  0.00  0.00    +0.418 C 
ATOM      9  F   UNL A   1       4.226  -0.252   1.878  0.00  0.00    -0.166 F 
ATOM     10  F   UNL A   1       4.144   1.818   0.985  0.00  0.00    -0.166 F 
ATOM     11  F   UNL A   1       5.353   0.207  -0.010  0.00  0.00    -0.166 F 
ENDBRANCH   3   8
BRANCH   7  12
ATOM     12  N   UNL A   1      -0.780   0.045   0.175  0.00  0.00    -0.194 NA
BRANCH  12  13
ATOM     13  C   UNL A   1      -2.037  -0.272  -0.445  0.00  0.00    +0.158 A 
ATOM     14  C   UNL A   1      -3.253  -0.026   0.237  0.00  0.00    +0.113 A 
ATOM     15  C   UNL A   1      -4.454  -0.351  -0.406  0.00  0.00    +0.011 A 
ATOM     16  C   UNL A   1      -4.451  -0.901  -1.686  0.00  0.00    +0.021 A 
ATOM     17  C   UNL A   1      -3.233  -1.127  -2.322  0.00  0.00    +0.100 A 
ATOM     18  N   UNL A   1      -2.070  -0.812  -1.696  0.00  0.00    -0.227 NA
BRANCH  14  19
ATOM     19  C   UNL A   1      -3.322   0.556   1.598  0.00  0.00    +0.391 C 
ATOM     20  O   UNL A   1      -2.278   0.870   2.229  0.00  0.00    -0.240 OA
ATOM     21  O   UNL A   1      -4.558   0.767   2.199  0.00  0.00    -0.240 OA
ENDBRANCH  14  19
ENDBRANCH  12  13
ENDBRANCH   7  12
TORSDOF 4
