REMARK  Name = fda_3250
REMARK  8 active torsions:
REMARK  status: ('A' for Active; 'I' for Inactive)
REMARK    1  A    between atoms: C_2  and  N_23
REMARK    2  A    between atoms: C_5  and  C_6
REMARK    3  A    between atoms: C_5  and  N_23
REMARK    4  A    between atoms: C_6  and  C_7
REMARK    5  A    between atoms: C_7  and  S_8
REMARK    6  A    between atoms: S_8  and  C_9
REMARK    7  A    between atoms: C_11  and  C_14
REMARK    8  A    between atoms: C_17  and  C_19
REMARK                            x       y       z     vdW  Elec       q    Type
REMARK                         _______ _______ _______ _____ _____    ______ ____
ROOT
ATOM      1  C   UNL A   1       0.869  -0.830   1.269  0.00  0.00    +0.137 A 
ATOM      2  N   UNL A   1      -0.438  -1.152   1.255  0.00  0.00    -0.232 NA
ATOM      3  C   UNL A   1      -1.226  -0.051   1.107  0.00  0.00    +0.095 A 
ATOM      4  C   UNL A   1      -0.554   1.169   1.006  0.00  0.00    +0.057 A 
ATOM      5  S   UNL A   1       1.091   0.821   1.108  0.00  0.00    -0.060 S 
ENDROOT
BRANCH   3   6
ATOM      6  C   UNL A   1      -2.691  -0.155   1.060  0.00  0.00    +0.048 A 
ATOM      7  C   UNL A   1      -3.413  -1.340   1.157  0.00  0.00    +0.009 A 
ATOM      8  C   UNL A   1      -4.800  -1.145   1.081  0.00  0.00    +0.012 A 
ATOM      9  C   UNL A   1      -5.153   0.191   0.926  0.00  0.00    +0.086 A 
ATOM     10  S   UNL A   1      -3.760   1.132   0.882  0.00  0.00    -0.081 S 
BRANCH   9  11
ATOM     11  C   UNL A   1      -6.526   0.699   0.817  0.00  0.00    +0.290 C 
ATOM     12  O   UNL A   1      -7.501  -0.096   0.862  0.00  0.00    -0.266 OA
ATOM     13  N   UNL A   1      -6.764   2.094   0.661  0.00  0.00    -0.083 NA
ENDBRANCH   9  11
ENDBRANCH   3   6
BRANCH   1  14
ATOM     14  S   UNL A   1       2.184  -2.026   1.458  0.00  0.00    -0.086 S 
BRANCH  14  15
ATOM     15  C   UNL A   1       2.269  -2.342  -0.331  0.00  0.00    +0.098 C 
BRANCH  15  16
ATOM     16  C   UNL A   1       3.609  -1.894  -0.885  0.00  0.00    +0.180 C 
ATOM     17  O   UNL A   1       3.809  -2.481  -2.134  0.00  0.00    -0.221 OA
BRANCH  16  18
ATOM     18  C   UNL A   1       3.630  -0.383  -1.027  0.00  0.00    +0.122 C 
BRANCH  18  19
ATOM     19  N   UNL A   1       4.985   0.072  -1.331  0.00  0.00    -0.218 NA
BRANCH  19  21
ATOM     20  C   UNL A   1       6.482   1.936  -1.698  0.00  0.00    +0.017 C 
ATOM     21  C   UNL A   1       5.057   1.536  -1.379  0.00  0.00    +0.060 C 
ATOM     22  C   UNL A   1       4.155   2.095  -2.470  0.00  0.00    +0.017 C 
ATOM     23  C   UNL A   1       4.685   2.148  -0.036  0.00  0.00    +0.017 C 
ENDBRANCH  19  21
ENDBRANCH  18  19
ENDBRANCH  16  18
ENDBRANCH  15  16
ENDBRANCH  14  15
ENDBRANCH   1  14
TORSDOF 8
