REMARK  2 active torsions:
REMARK  status: ('A' for Active; 'I' for Inactive)
REMARK    1  A    between atoms: C_5  and  N_6 
REMARK       I    between atoms: N_6  and  C_8 
REMARK       I    between atoms: C_8  and  N_10 
REMARK    2  A    between atoms: N_10  and  C_12 
ROOT
ATOM      1  N   UNL d   1       1.535   0.455   1.195  0.00  0.00    -0.309 N 
ATOM      2  HN  UNL d   1       1.434   0.962   2.074  1.00  0.00     0.170 HD
ATOM      3  C   UNL d   1       0.323   0.118   0.507  0.00  0.00     0.325 C 
ATOM      4  O   UNL d   1       0.358  -0.508  -0.586  0.00  0.00    -0.247 OA
ATOM      5  N   UNL d   1      -0.928   0.508   1.087  0.00  0.00    -0.309 N 
ATOM      6  HN  UNL d   1      -0.883   1.012   1.972  1.00  0.00     0.170 HD
ENDROOT
BRANCH   1   7
ATOM      7  C   UNL d   1       2.874   0.154   0.778  0.00  0.00     0.036 A 
ATOM      8  C   UNL d   1       3.939   0.567   1.587  0.00  0.00     0.031 A 
ATOM      9  C   UNL d   1       5.258   0.292   1.215  0.00  0.00     0.026 A 
ATOM     10  C   UNL d   1       5.520  -0.398   0.029  0.00  0.00     0.034 A 
ATOM     11 CL   UNL d   1       7.172  -0.742  -0.437  0.00  0.00    -0.084 Cl
ATOM     12  C   UNL d   1       4.463  -0.814  -0.785  0.00  0.00     0.026 A 
ATOM     13  C   UNL d   1       3.145  -0.539  -0.412  0.00  0.00     0.031 A 
ENDBRANCH   1   7
BRANCH   5  14
ATOM     14  C   UNL d   1      -2.237   0.265   0.554  0.00  0.00     0.038 A 
ATOM     15  C   UNL d   1      -3.349   0.724   1.266  0.00  0.00     0.055 A 
ATOM     16  C   UNL d   1      -4.644   0.509   0.785  0.00  0.00     0.058 A 
ATOM     17 CL   UNL d   1      -6.003   1.109   1.722  0.00  0.00    -0.082 Cl
ATOM     18  C   UNL d   1      -4.832  -0.175  -0.428  0.00  0.00     0.055 A 
ATOM     19 CL   UNL d   1      -6.437  -0.471  -1.077  0.00  0.00    -0.083 Cl
ATOM     20  C   UNL d   1      -3.723  -0.636  -1.143  0.00  0.00     0.028 A 
ATOM     21  C   UNL d   1      -2.433  -0.417  -0.656  0.00  0.00     0.031 A 
ENDBRANCH   5  14
TORSDOF 2
