REMARK  5 active torsions:
REMARK  status: ('A' for Active; 'I' for Inactive)
REMARK    1  A    between atoms: C_3  and  C_4 
REMARK    2  A    between atoms: C_3  and  N_24 
REMARK    3  A    between atoms: C_4  and  C_5 
REMARK    4  A    between atoms: C_18  and  C_21 
REMARK    5  A    between atoms: C_21  and  C_22 
ROOT
ATOM      1  C   UNL d   1      -0.335   1.503   0.079  0.00  0.00    -0.012 C 
ATOM      2  C   UNL d   1      -0.327   0.160   0.138  0.00  0.00    -0.016 C 
ATOM      3  C   UNL d   1      -1.554  -0.598   0.482  0.00  0.00    -0.017 A 
ATOM      4  C   UNL d   1      -2.258  -0.308   1.661  0.00  0.00     0.013 A 
ATOM      5  C   UNL d   1      -3.410  -1.026   1.993  0.00  0.00     0.001 A 
ATOM      6  C   UNL d   1      -3.867  -2.041   1.149  0.00  0.00     0.001 A 
ATOM      7  C   UNL d   1      -3.171  -2.338  -0.025  0.00  0.00     0.010 A 
ATOM      8  C   UNL d   1      -2.019  -1.619  -0.359  0.00  0.00    -0.023 A 
ATOM      9  C   UNL d   1      -1.284  -1.943  -1.607  0.00  0.00     0.215 C 
ATOM     10  O   UNL d   1      -0.028  -2.523  -1.287  0.00  0.00    -0.346 OA
ATOM     11  C   UNL d   1       1.053  -1.838  -0.711  0.00  0.00     0.080 A 
ATOM     12  C   UNL d   1       0.956  -0.558  -0.089  0.00  0.00     0.009 A 
ATOM     13  C   UNL d   1       2.133   0.043   0.394  0.00  0.00     0.022 A 
ATOM     14  C   UNL d   1       3.369  -0.597   0.293  0.00  0.00    -0.047 A 
ATOM     15  C   UNL d   1       3.450  -1.859  -0.292  0.00  0.00     0.010 A 
ATOM     16  C   UNL d   1       2.299  -2.471  -0.786  0.00  0.00     0.038 A 
ENDROOT
BRANCH   1  17
ATOM     17  C   UNL d   1      -1.548   2.356   0.270  0.00  0.00     0.058 C 
BRANCH  17  18
ATOM     18  C   UNL d   1      -2.459   2.263  -0.960  0.00  0.00     0.275 C 
BRANCH  18  19
ATOM     19  N   UNL d   1      -3.734   2.969  -0.800  0.00  0.00     0.080 N 
ATOM     20  C   UNL d   1      -3.490   4.378  -0.526  0.00  0.00     0.309 C 
ATOM     21  C   UNL d   1      -4.470   2.407   0.323  0.00  0.00     0.309 C 
ENDBRANCH  18  19
ENDBRANCH  17  18
ENDBRANCH   1  17
BRANCH  14  22
ATOM     22  C   UNL d   1       4.601   0.073   0.799  0.00  0.00     0.151 C 
BRANCH  22  23
ATOM     23  C   UNL d   1       5.213   0.915  -0.268  0.00  0.00     0.176 C 
ATOM     24  O   UNL d   1       6.111   0.437  -1.009  0.00  0.00    -0.648 OA
ATOM     25  O   UNL d   1       4.769   2.215  -0.468  0.00  0.00    -0.648 OA
ENDBRANCH  22  23
ENDBRANCH  14  22
TORSDOF 5
