REMARK  1 active torsions:
REMARK  status: ('A' for Active; 'I' for Inactive)
REMARK    1  A    between atoms: C_3  and  C_2 
ROOT
ATOM      1  C   UNL d   1      -0.376  -0.616   0.146  0.00  0.00     0.045 A 
ATOM      2  C   UNL d   1       1.062  -0.989  -0.225  0.00  0.00     0.122 A 
ATOM      3  C   UNL d   1       1.778   0.318  -0.234  0.00  0.00     0.225 A 
ATOM      4  O   UNL d   1       3.000   0.435  -0.508  0.00  0.00    -0.273 OA
ATOM      5  N   UNL d   1       0.968   1.428   0.098  0.00  0.00    -0.297 N 
ATOM      6  HN  UNL d   1       1.244   2.408   0.155  1.00  0.00     0.171 HD
ATOM      7  C   UNL d   1      -0.312   0.872   0.330  0.00  0.00     0.233 A 
ATOM      8  O   UNL d   1      -1.295   1.580   0.676  0.00  0.00    -0.272 OA
ATOM      9  C   UNL d   1      -0.753  -1.312   1.445  0.00  0.00     0.026 C 
ENDROOT
BRANCH   1  10
ATOM     10  C   UNL d   1      -1.305  -1.018  -1.002  0.00  0.00     0.015 C 
ATOM     11  C   UNL d   1      -2.768  -0.698  -0.726  0.00  0.00     0.006 C 
ENDBRANCH   1  10
TORSDOF 1
