REMARK  8 active torsions:
REMARK  status: ('A' for Active; 'I' for Inactive)
REMARK    1  A    between atoms: O_2  and  C_3 
REMARK    2  A    between atoms: C_9  and  C_10 
REMARK       I    between atoms: C_10  and  N_12 
REMARK    3  A    between atoms: N_12  and  C_14 
REMARK    4  A    between atoms: C_14  and  C_15 
REMARK    5  A    between atoms: C_18  and  C_21 
REMARK    6  A    between atoms: C_25  and  N_24 
REMARK    7  A    between atoms: C_25  and  C_27 
REMARK    8  A    between atoms: C_33  and  C_34 
ROOT
ATOM      1  C   UNL d   1       1.264  -2.285   0.548  0.00  0.00    -0.040 A 
ATOM      2  C   UNL d   1       0.788  -2.297  -0.767  0.00  0.00     0.010 A 
ATOM      3  C   UNL d   1      -0.509  -1.857  -1.046  0.00  0.00     0.014 A 
ATOM      4  C   UNL d   1      -1.345  -1.409  -0.013  0.00  0.00    -0.007 A 
ATOM      5  C   UNL d   1      -0.852  -1.377   1.299  0.00  0.00     0.014 A 
ATOM      6  C   UNL d   1       0.445  -1.817   1.580  0.00  0.00     0.010 A 
ENDROOT
BRANCH   4   7
ATOM      7  C   UNL d   1      -2.698  -0.892  -0.294  0.00  0.00     0.077 A 
ATOM      8  N   UNL d   1      -3.259   0.094   0.442  0.00  0.00    -0.295 N 
ATOM      9  N   UNL d   1      -4.431   0.391  -0.100  0.00  0.00    -0.264 N 
ATOM     10  HN  UNL d   1      -2.852   0.531   1.268  1.00  0.00     0.187 HD
ATOM     11  C   UNL d   1      -4.632  -0.383  -1.179  0.00  0.00     0.151 A 
ATOM     12  N   UNL d   1      -5.818  -0.362  -1.969  0.00  0.00    -0.080 NA
ATOM     13  C   UNL d   1      -3.558  -1.236  -1.343  0.00  0.00     0.100 A 
BRANCH   9  14
ATOM     14  C   UNL d   1      -5.341   1.415   0.403  0.00  0.00     0.213 C 
ATOM     15  C   UNL d   1      -5.690   1.148   1.860  0.00  0.00     0.044 C 
BRANCH  14  16
ATOM     16  C   UNL d   1      -4.760   2.817   0.211  0.00  0.00     0.409 C 
ATOM     17  F   UNL d   1      -5.688   3.764   0.603  0.00  0.00    -0.169 F 
ATOM     18  F   UNL d   1      -4.460   3.015  -1.124  0.00  0.00    -0.169 F 
ATOM     19  F   UNL d   1      -3.607   2.973   0.962  0.00  0.00    -0.169 F 
ENDBRANCH  14  16
ENDBRANCH   9  14
BRANCH  13  20
ATOM     20  C   UNL d   1      -3.452  -2.322  -2.336  0.00  0.00     0.270 C 
ATOM     21  N   UNL d   1      -2.677  -3.485  -2.066  0.00  0.00    -0.057 NA
ATOM     22  O   UNL d   1      -4.098  -2.253  -3.414  0.00  0.00    -0.271 OA
ENDBRANCH  13  20
ENDBRANCH   4   7
BRANCH   1  23
ATOM     23  C   UNL d   1       2.653  -2.737   0.846  0.00  0.00     0.161 C 
BRANCH  23  24
ATOM     24  N   UNL d   1       3.613  -1.713   0.458  0.00  0.00    -0.353 N 
ATOM     25  C   UNL d   1       3.844  -0.529   1.228  0.00  0.00     0.254 C 
ATOM     26  O   UNL d   1       3.254  -0.384   2.334  0.00  0.00    -0.268 OA
ATOM     27  HN  UNL d   1       4.145  -1.846  -0.403  1.00  0.00     0.163 HD
BRANCH  25  28
ATOM     28  C   UNL d   1       4.774   0.524   0.751  0.00  0.00     0.068 A 
ATOM     29  C   UNL d   1       5.014   1.627   1.587  0.00  0.00     0.062 A 
ATOM     30  C   UNL d   1       5.878   2.651   1.198  0.00  0.00     0.117 A 
ATOM     31  C   UNL d   1       6.517   2.590  -0.038  0.00  0.00     0.045 A 
ATOM     32  F   UNL d   1       6.094   3.705   2.021  0.00  0.00    -0.206 F 
ATOM     33  C   UNL d   1       6.291   1.504  -0.884  0.00  0.00     0.041 A 
ATOM     34  C   UNL d   1       5.423   0.465  -0.507  0.00  0.00     0.084 A 
BRANCH  34  35
ATOM     35  O   UNL d   1       5.202  -0.616  -1.370  0.00  0.00    -0.355 OA
ATOM     36  C   UNL d   1       5.822  -0.729  -2.644  0.00  0.00     0.210 C 
ENDBRANCH  34  35
ENDBRANCH  25  28
ENDBRANCH  23  24
ENDBRANCH   1  23
TORSDOF 8
