REMARK  5 active torsions:
REMARK  status: ('A' for Active; 'I' for Inactive)
REMARK    1  A    between atoms: C_3  and  C_2 
REMARK    2  A    between atoms: C_3  and  O_4 
REMARK    3  A    between atoms: C_20  and  O_21 
REMARK    4  A    between atoms: C_23  and  C_24 
REMARK    5  A    between atoms: C_24  and  N_25 
ROOT
ATOM      1  C   UNL d   1      -4.622   0.517  -0.627  0.00  0.00     0.173 C 
ATOM      2  C   UNL d   1      -5.826  -0.252  -0.117  0.00  0.00     0.298 C 
ATOM      3  O   UNL d   1      -6.886  -0.312  -0.795  0.00  0.00    -0.261 OA
ATOM      4  O   UNL d   1      -5.790  -0.882   1.130  0.00  0.00    -0.314 OA
ATOM      5  C   UNL d   1      -4.752  -0.626   2.069  0.00  0.00     0.224 C 
ATOM      6  C   UNL d   1      -3.427  -0.518   1.379  0.00  0.00     0.044 A 
ATOM      7  C   UNL d   1      -3.359   0.047   0.080  0.00  0.00     0.002 A 
ATOM      8  C   UNL d   1      -2.097   0.253  -0.511  0.00  0.00     0.043 A 
ATOM      9  C   UNL d   1      -0.966  -0.148   0.190  0.00  0.00     0.065 A 
ATOM     10  C   UNL d   1       0.415  -0.051  -0.200  0.00  0.00     0.068 A 
ATOM     11  N   UNL d   1       0.958   0.441  -1.340  0.00  0.00    -0.353 N 
ATOM     12  HN  UNL d   1       0.361   0.813  -2.079  1.00  0.00     0.166 HD
ATOM     13  C   UNL d   1       2.315   0.429  -1.487  0.00  0.00     0.043 A 
ATOM     14  C   UNL d   1       2.886   0.933  -2.656  0.00  0.00     0.033 A 
ATOM     15  C   UNL d   1       4.272   0.929  -2.817  0.00  0.00     0.039 A 
ATOM     16  C   UNL d   1       5.103   0.423  -1.815  0.00  0.00     0.074 A 
ATOM     17  C   UNL d   1       4.552  -0.094  -0.628  0.00  0.00     0.015 A 
ATOM     18  C   UNL d   1       3.153  -0.092  -0.454  0.00  0.00     0.002 A 
ATOM     19  C   UNL d   1       2.558  -0.596   0.722  0.00  0.00     0.025 A 
ATOM     20  C   UNL d   1       1.173  -0.562   0.822  0.00  0.00    -0.010 A 
ATOM     21  C   UNL d   1       0.284  -1.020   1.940  0.00  0.00     0.173 A 
ATOM     22  N   UNL d   1      -1.051  -0.704   1.417  0.00  0.00    -0.307 N 
ATOM     23  C   UNL d   1      -2.243  -0.893   2.043  0.00  0.00     0.257 A 
ATOM     24  O   UNL d   1      -2.281  -1.390   3.201  0.00  0.00    -0.267 OA
ENDROOT
BRANCH   1  25
ATOM     25  C   UNL d   1      -4.468   0.316  -2.147  0.00  0.00     0.049 C 
ATOM     26  C   UNL d   1      -5.492   1.092  -2.964  0.00  0.00     0.009 C 
ENDBRANCH   1  25
BRANCH   1  27
ATOM     27  O   UNL d   1      -4.800   1.875  -0.345  0.00  0.00    -0.375 OA
ATOM     28  HO  UNL d   1      -4.895   1.999   0.592  1.00  0.00     0.211 HD
ENDBRANCH   1  27
BRANCH  17  29
ATOM     29  C   UNL d   1       5.465  -0.612   0.446  0.00  0.00     0.313 C 
BRANCH  29  30
ATOM     30  N   UNL d   1       5.727   0.433   1.422  0.00  0.00     0.084 N 
ATOM     31  C   UNL d   1       5.600  -0.179   2.732  0.00  0.00     0.309 C 
ATOM     32  C   UNL d   1       7.122   0.808   1.275  0.00  0.00     0.309 C 
ENDBRANCH  29  30
ENDBRANCH  17  29
BRANCH  16  33
ATOM     33  O   UNL d   1       6.479   0.436  -2.008  0.00  0.00    -0.360 OA
ATOM     34  HO  UNL d   1       7.045   0.091  -1.326  1.00  0.00     0.217 HD
ENDBRANCH  16  33
TORSDOF 5
