REMARK  12 active torsions:
REMARK  status: ('A' for Active; 'I' for Inactive)
REMARK    1  A    between atoms: C_2  and  O_3 
REMARK    2  A    between atoms: C_4  and  O_3 
REMARK    3  A    between atoms: C_4  and  C_5 
REMARK    4  A    between atoms: C_4  and  C_17 
REMARK    5  A    between atoms: C_5  and  O_6 
REMARK    6  A    between atoms: O_6  and  C_7 
REMARK    7  A    between atoms: C_10  and  C_13 
REMARK    8  A    between atoms: C_17  and  S_18 
REMARK    9  A    between atoms: S_18  and  C_19 
REMARK   10  A    between atoms: C_22  and  O_23 
REMARK   11  A    between atoms: O_23  and  C_24 
REMARK   12  A    between atoms: C_24  and  C_25 
ROOT
ATOM      1  C   UNL d   1       1.925  -1.210  -3.144  0.00  0.00     0.155 C 
ENDROOT
BRANCH   1   2
ATOM      2  O   UNL d   1       1.741  -1.514  -4.493  0.00  0.00    -0.383 OA
BRANCH   2   3
ATOM      3  C   UNL d   1       1.617  -2.904  -4.532  0.00  0.00     0.163 C 
ATOM      4  C   UNL d   1       1.337  -3.347  -5.953  0.00  0.00     0.033 C 
ENDBRANCH   2   3
ENDBRANCH   1   2
BRANCH   1   5
ATOM      5  C   UNL d   1       0.821  -0.280  -2.677  0.00  0.00     0.208 C 
BRANCH   5   6
ATOM      6  O   UNL d   1      -0.309  -1.038  -2.273  0.00  0.00    -0.349 OA
BRANCH   6   7
ATOM      7  C   UNL d   1      -1.286  -0.522  -1.418  0.00  0.00     0.068 A 
ATOM      8  C   UNL d   1      -1.221   0.796  -0.939  0.00  0.00     0.037 A 
ATOM      9  C   UNL d   1      -2.195   1.276  -0.061  0.00  0.00     0.019 A 
ATOM     10  C   UNL d   1      -3.254   0.451   0.340  0.00  0.00     0.048 A 
ATOM     11  C   UNL d   1      -3.312  -0.869  -0.131  0.00  0.00     0.019 A 
ATOM     12  C   UNL d   1      -2.337  -1.349  -1.011  0.00  0.00     0.037 A 
BRANCH  10  13
ATOM     13  C   UNL d   1      -4.262   0.947   1.335  0.00  0.00     0.417 C 
ATOM     14  F   UNL d   1      -4.482   2.303   1.161  0.00  0.00    -0.166 F 
ATOM     15  F   UNL d   1      -5.466   0.281   1.179  0.00  0.00    -0.166 F 
ATOM     16  F   UNL d   1      -3.787   0.728   2.614  0.00  0.00    -0.166 F 
ENDBRANCH  10  13
ENDBRANCH   6   7
ENDBRANCH   5   6
ENDBRANCH   1   5
BRANCH   1  17
ATOM     17  C   UNL d   1       3.263  -0.517  -2.951  0.00  0.00     0.113 C 
BRANCH  17  18
ATOM     18  S   UNL d   1       4.165  -1.203  -1.519  0.00  0.00    -0.127 SA
BRANCH  18  19
ATOM     19  C   UNL d   1       2.992  -0.624  -0.295  0.00  0.00     0.001 A 
ATOM     20  C   UNL d   1       3.030   0.701   0.147  0.00  0.00     0.021 A 
ATOM     21  C   UNL d   1       2.096   1.151   1.084  0.00  0.00     0.039 A 
ATOM     22  C   UNL d   1       1.119   0.279   1.593  0.00  0.00     0.075 A 
ATOM     23  C   UNL d   1       1.098  -1.056   1.157  0.00  0.00    -0.027 A 
ATOM     24  C   UNL d   1       0.081  -2.013   1.675  0.00  0.00     0.051 C 
ATOM     25  C   UNL d   1       2.031  -1.501   0.216  0.00  0.00     0.028 A 
BRANCH  22  26
ATOM     26  O   UNL d   1       0.162   0.719   2.518  0.00  0.00    -0.340 OA
BRANCH  26  27
ATOM     27  C   UNL d   1       0.127   2.044   3.038  0.00  0.00     0.288 C 
BRANCH  27  28
ATOM     28  C   UNL d   1       1.115   2.191   4.144  0.00  0.00     0.198 C 
ATOM     29  O   UNL d   1       2.334   2.811   3.909  0.00  0.00    -0.646 OA
ATOM     30  O   UNL d   1       0.855   1.730   5.285  0.00  0.00    -0.646 OA
ENDBRANCH  27  28
ENDBRANCH  26  27
ENDBRANCH  22  26
ENDBRANCH  18  19
ENDBRANCH  17  18
ENDBRANCH   1  17
TORSDOF 12
