REMARK  Name = fda_6280
REMARK  7 active torsions:
REMARK  status: ('A' for Active; 'I' for Inactive)
REMARK    1  A    between atoms: N_5  and  C_6
REMARK    2  A    between atoms: C_6  and  C_7
REMARK    3  A    between atoms: C_10  and  N_11
REMARK    4  A    between atoms: C_12  and  C_14
REMARK    5  A    between atoms: C_19  and  C_21
REMARK    6  A    between atoms: C_22  and  C_23
REMARK    7  A    between atoms: C_33  and  C_34
REMARK                            x       y       z     vdW  Elec       q    Type
REMARK                         _______ _______ _______ _____ _____    ______ ____
ROOT
ATOM      1  N   UNL A   1       1.032  -1.524   0.508  0.00  0.00    -0.175 NA
ATOM      2  C   UNL A   1      -0.238  -0.927   0.203  0.00  0.00    +0.269 C 
ATOM      3  O   UNL A   1      -0.301   0.162  -0.429  0.00  0.00    -0.268 OA
ENDROOT
BRANCH   2   4
ATOM      4  C   UNL A   1      -1.480  -1.595   0.632  0.00  0.00    +0.056 A 
ATOM      5  C   UNL A   1      -1.426  -2.805   1.335  0.00  0.00    +0.004 A 
ATOM      6  C   UNL A   1      -2.603  -3.438   1.744  0.00  0.00    -0.004 A 
ATOM      7  C   UNL A   1      -3.847  -2.870   1.455  0.00  0.00    -0.014 A 
ATOM      8  C   UNL A   1      -5.079  -3.579   1.908  0.00  0.00    +0.032 C 
ATOM      9  C   UNL A   1      -3.910  -1.655   0.747  0.00  0.00    +0.038 A 
ATOM     10  C   UNL A   1      -2.728  -1.027   0.342  0.00  0.00    +0.013 A 
BRANCH   9  11
ATOM     11  C   UNL A   1      -5.169  -1.033   0.426  0.00  0.00    -0.059 C 
ATOM     12  C   UNL A   1      -6.223  -0.514   0.156  0.00  0.00    -0.039 C 
BRANCH  12  13
ATOM     13  C   UNL A   1      -7.479   0.107  -0.166  0.00  0.00    +0.145 A 
ATOM     14  C   UNL A   1      -8.589  -0.511  -0.723  0.00  0.00    +0.128 A 
ATOM     15  N   UNL A   1      -9.575   0.415  -0.875  0.00  0.00    -0.223 NA
ATOM     16  C   UNL A   1      -9.030   1.557  -0.408  0.00  0.00    +0.165 A 
ATOM     17  C   UNL A   1      -9.641   2.804  -0.347  0.00  0.00    +0.041 A 
ATOM     18  C   UNL A   1      -8.880   3.859   0.180  0.00  0.00    +0.026 A 
ATOM     19  C   UNL A   1      -7.561   3.628   0.618  0.00  0.00    +0.121 A 
ATOM     20  N   UNL A   1      -7.029   2.375   0.527  0.00  0.00    -0.162 NA
ATOM     21  N   UNL A   1      -7.776   1.396   0.022  0.00  0.00    -0.203 N 
ENDBRANCH  12  13
ENDBRANCH   9  11
ENDBRANCH   2   4
BRANCH   1  25
ATOM     22  C   UNL A   1       4.901  -0.068  -0.462  0.00  0.00    -0.002 A 
ATOM     23  C   UNL A   1       3.767   0.659  -0.842  0.00  0.00    -0.002 A 
ATOM     24  C   UNL A   1       2.490   0.191  -0.532  0.00  0.00    +0.016 A 
ATOM     25  C   UNL A   1       2.327  -1.011   0.168  0.00  0.00    +0.074 A 
ATOM     26  C   UNL A   1       3.458  -1.737   0.550  0.00  0.00    +0.020 A 
ATOM     27  C   UNL A   1       4.752  -1.286   0.242  0.00  0.00    +0.070 A 
BRANCH  27  28
ATOM     28  C   UNL A   1       5.944  -2.098   0.686  0.00  0.00    +0.418 C 
ATOM     29  F   UNL A   1       5.546  -3.306   1.235  0.00  0.00    -0.166 F 
ATOM     30  F   UNL A   1       6.766  -2.360  -0.395  0.00  0.00    -0.166 F 
ATOM     31  F   UNL A   1       6.655  -1.394   1.640  0.00  0.00    -0.166 F 
ENDBRANCH  27  28
BRANCH  22  32
ATOM     32  C   UNL A   1       6.246   0.494  -0.799  0.00  0.00    +0.099 C 
BRANCH  32  37
ATOM     33  C   UNL A   1       9.143   3.506  -2.328  0.00  0.00    +0.090 C 
ATOM     34  N   UNL A   1       8.275   2.607  -1.589  0.00  0.00    -0.269 NA
ATOM     35  C   UNL A   1       7.083   3.375  -1.228  0.00  0.00    +0.090 C 
ATOM     36  C   UNL A   1       6.320   2.766  -0.033  0.00  0.00    +0.090 C 
ATOM     37  N   UNL A   1       6.709   1.378   0.266  0.00  0.00    -0.267 NA
ATOM     38  C   UNL A   1       8.164   1.214   0.415  0.00  0.00    +0.090 C 
ATOM     39  C   UNL A   1       8.984   2.244  -0.370  0.00  0.00    +0.090 C 
ENDBRANCH  32  37
ENDBRANCH  22  32
ENDBRANCH   1  25
TORSDOF 7
