REMARK  16 active torsions:
REMARK  status: ('A' for Active; 'I' for Inactive)
REMARK    1  A    between atoms: C_3  and  O_1 
REMARK    2  A    between atoms: C_4  and  O_16 
REMARK    3  A    between atoms: C_5  and  N_12 
REMARK    4  A    between atoms: C_7  and  N_8 
REMARK    5  A    between atoms: C_17  and  O_16 
REMARK    6  A    between atoms: C_19  and  C_29 
REMARK    7  A    between atoms: C_20  and  O_27 
REMARK    8  A    between atoms: C_22  and  N_23 
REMARK    9  A    between atoms: C_29  and  N_30 
REMARK   10  A    between atoms: C_34  and  O_35 
REMARK   11  A    between atoms: C_36  and  O_35 
REMARK   12  A    between atoms: C_38  and  C_50 
REMARK   13  A    between atoms: C_39  and  O_48 
REMARK   14  A    between atoms: C_40  and  N_44 
REMARK   15  A    between atoms: C_41  and  O_42 
REMARK   16  A    between atoms: C_50  and  O_51 
ROOT
ATOM      1  C   UNL d   1      -0.064  -0.327  -0.034  0.00  0.00     0.180 C 
ATOM      2  C   UNL d   1       1.101   0.191  -0.890  0.00  0.00     0.186 C 
ATOM      3  C   UNL d   1       0.964   1.690  -1.164  0.00  0.00     0.217 C 
ATOM      4  C   UNL d   1      -0.308   1.990  -1.963  0.00  0.00     0.071 C 
ATOM      5  C   UNL d   1      -1.501   1.091  -1.607  0.00  0.00     0.217 C 
ATOM      6  C   UNL d   1      -1.381   0.444  -0.220  0.00  0.00     0.186 C 
ENDROOT
BRANCH   2   7
ATOM      7  O   UNL d   1       2.308  -0.075  -0.234  0.00  0.00    -0.349 OA
BRANCH   7   8
ATOM      8  C   UNL d   1       2.961  -1.020  -1.039  0.00  0.00     0.291 C 
ATOM      9  O   UNL d   1       4.087  -0.446  -1.678  0.00  0.00    -0.350 OA
ATOM     10  C   UNL d   1       5.134  -0.360  -0.740  0.00  0.00     0.178 C 
ATOM     11  C   UNL d   1       5.729  -1.747  -0.477  0.00  0.00     0.151 C 
ATOM     12  C   UNL d   1       4.671  -2.848  -0.622  0.00  0.00     0.072 C 
ATOM     13  C   UNL d   1       3.267  -2.342  -0.285  0.00  0.00     0.240 C 
BRANCH  10  14
ATOM     14  C   UNL d   1       6.214   0.577  -1.250  0.00  0.00     0.264 C 
BRANCH  14  15
ATOM     15  N   UNL d   1       5.704   1.935  -1.304  0.00  0.00    -0.077 N 
ATOM     16  HN3 UNL d   1       4.848   2.002  -1.855  1.00  0.00     0.274 HD
ATOM     17  HN2 UNL d   1       5.327   2.239  -0.407  1.00  0.00     0.274 HD
ATOM     18  HN1 UNL d   1       6.430   2.565  -1.647  1.00  0.00     0.274 HD
ENDBRANCH  14  15
ENDBRANCH  10  14
BRANCH  11  19
ATOM     19  O   UNL d   1       6.276  -1.784   0.806  0.00  0.00    -0.393 OA
ATOM     20  HO  UNL d   1       6.645  -2.645   0.969  1.00  0.00     0.210 HD
ENDBRANCH  11  19
BRANCH  13  21
ATOM     21  N   UNL d   1       3.134  -2.183   1.156  0.00  0.00    -0.070 N 
ATOM     22  HN3 UNL d   1       3.364  -3.040   1.659  1.00  0.00     0.274 HD
ATOM     23  HN2 UNL d   1       3.861  -1.583   1.545  1.00  0.00     0.274 HD
ATOM     24  HN1 UNL d   1       2.198  -1.846   1.380  1.00  0.00     0.274 HD
ENDBRANCH  13  21
ENDBRANCH   7   8
ENDBRANCH   2   7
BRANCH   1  25
ATOM     25  O   UNL d   1      -0.271  -1.681  -0.298  0.00  0.00    -0.390 OA
ATOM     26  HO  UNL d   1      -0.991  -2.002   0.232  1.00  0.00     0.210 HD
ENDBRANCH   1  25
BRANCH   3  27
ATOM     27  N   UNL d   1       2.116   2.179  -1.902  0.00  0.00    -0.072 N 
ATOM     28  HN3 UNL d   1       2.992   1.958  -1.429  1.00  0.00     0.274 HD
ATOM     29  HN2 UNL d   1       2.269   1.649  -2.760  1.00  0.00     0.274 HD
ATOM     30  HN1 UNL d   1       2.024   3.178  -2.085  1.00  0.00     0.274 HD
ENDBRANCH   3  27
BRANCH   6  31
ATOM     31  O   UNL d   1      -1.503   1.423   0.779  0.00  0.00    -0.349 OA
BRANCH  31  32
ATOM     32  C   UNL d   1      -2.758   1.279   1.415  0.00  0.00     0.291 C 
ATOM     33  O   UNL d   1      -3.873   1.302   0.533  0.00  0.00    -0.349 OA
ATOM     34  C   UNL d   1      -4.370  -0.007   0.374  0.00  0.00     0.179 C 
ATOM     35  C   UNL d   1      -5.035  -0.512   1.664  0.00  0.00     0.182 C 
ATOM     36  C   UNL d   1      -4.253  -0.095   2.916  0.00  0.00     0.247 C 
ATOM     37  C   UNL d   1      -2.804   0.280   2.598  0.00  0.00     0.206 C 
BRANCH  34  38
ATOM     38  C   UNL d   1      -5.336  -0.064  -0.802  0.00  0.00     0.198 C 
BRANCH  38  39
ATOM     39  O   UNL d   1      -6.403   0.815  -0.603  0.00  0.00    -0.398 OA
ATOM     40  HO  UNL d   1      -7.005   0.780  -1.336  1.00  0.00     0.209 HD
ENDBRANCH  38  39
ENDBRANCH  34  38
BRANCH  35  41
ATOM     41  O   UNL d   1      -5.138  -1.903   1.623  0.00  0.00    -0.391 OA
ATOM     42  HO  UNL d   1      -5.549  -2.215   2.421  1.00  0.00     0.210 HD
ENDBRANCH  35  41
BRANCH  36  43
ATOM     43  N   UNL d   1      -4.923   1.022   3.560  0.00  0.00    -0.070 N 
ATOM     44  HN3 UNL d   1      -5.070   1.803   2.921  1.00  0.00     0.274 HD
ATOM     45  HN2 UNL d   1      -5.900   0.817   3.768  1.00  0.00     0.274 HD
ATOM     46  HN1 UNL d   1      -4.403   1.300   4.393  1.00  0.00     0.274 HD
ENDBRANCH  36  43
BRANCH  37  47
ATOM     47  O   UNL d   1      -2.076  -0.877   2.313  0.00  0.00    -0.388 OA
ATOM     48  HO  UNL d   1      -1.177  -0.644   2.115  1.00  0.00     0.210 HD
ENDBRANCH  37  47
ENDBRANCH  31  32
ENDBRANCH   6  31
BRANCH   5  49
ATOM     49  N   UNL d   1      -1.668   0.067  -2.624  0.00  0.00    -0.072 N 
ATOM     50  HN3 UNL d   1      -1.754   0.466  -3.559  1.00  0.00     0.274 HD
ATOM     51  HN2 UNL d   1      -0.814  -0.470  -2.771  1.00  0.00     0.274 HD
ATOM     52  HN1 UNL d   1      -2.461  -0.530  -2.388  1.00  0.00     0.274 HD
ENDBRANCH   5  49
TORSDOF 16
