REMARK  3 active torsions:
REMARK  status: ('A' for Active; 'I' for Inactive)
REMARK    1  A    between atoms: N_2  and  C_4 
REMARK    2  A    between atoms: C_4  and  C_5 
REMARK    3  A    between atoms: C_5  and  N_6 
ROOT
ATOM      1  N   UNL d   1       1.225  -0.310   0.997  0.00  0.00    -0.278 N 
ATOM      2  C   UNL d   1       0.912   1.066   0.724  0.00  0.00     0.261 A 
ATOM      3  O   UNL d   1       1.742   1.974   1.007  0.00  0.00    -0.267 OA
ATOM      4  C   UNL d   1      -0.386   1.413   0.110  0.00  0.00     0.044 A 
ATOM      5  C   UNL d   1      -0.703   2.749  -0.171  0.00  0.00     0.018 A 
ATOM      6  C   UNL d   1      -1.930   3.080  -0.751  0.00  0.00     0.002 A 
ATOM      7  C   UNL d   1      -2.854   2.079  -1.058  0.00  0.00     0.012 A 
ATOM      8  C   UNL d   1      -2.556   0.743  -0.785  0.00  0.00    -0.022 A 
ATOM      9  C   UNL d   1      -3.486  -0.253  -1.094  0.00  0.00     0.038 A 
ATOM     10  C   UNL d   1      -3.196  -1.592  -0.825  0.00  0.00     0.048 A 
ATOM     11  N   UNL d   1      -4.146  -2.601  -1.141  0.00  0.00    -0.102 NA
ATOM     12  C   UNL d   1      -1.974  -1.942  -0.244  0.00  0.00     0.044 A 
ATOM     13  C   UNL d   1      -1.028  -0.958   0.073  0.00  0.00     0.046 A 
ATOM     14  C   UNL d   1       0.263  -1.332   0.685  0.00  0.00     0.261 A 
ATOM     15  O   UNL d   1       0.520  -2.542   0.932  0.00  0.00    -0.267 OA
ATOM     16  C   UNL d   1      -1.315   0.397  -0.197  0.00  0.00     0.006 A 
ENDROOT
BRANCH   1  17
ATOM     17  C   UNL d   1       2.525  -0.668   1.558  0.00  0.00     0.166 C 
BRANCH  17  18
ATOM     18  C   UNL d   1       3.471  -1.137   0.459  0.00  0.00     0.291 C 
BRANCH  18  19
ATOM     19  N   UNL d   1       3.815  -0.030  -0.419  0.00  0.00     0.081 N 
ATOM     20  C   UNL d   1       5.121   0.452  -0.005  0.00  0.00     0.309 C 
ATOM     21  C   UNL d   1       3.983  -0.590  -1.747  0.00  0.00     0.309 C 
ENDBRANCH  18  19
ENDBRANCH  17  18
ENDBRANCH   1  17
TORSDOF 3
