REMARK  15 active torsions:
REMARK  status: ('A' for Active; 'I' for Inactive)
REMARK    1  A    between atoms: C_2  and  C_3 
REMARK    2  A    between atoms: C_3  and  C_4 
REMARK    3  A    between atoms: C_4  and  C_5 
REMARK    4  A    between atoms: C_5  and  C_6 
REMARK    5  A    between atoms: C_6  and  C_7 
REMARK    6  A    between atoms: C_6  and  O_25 
REMARK    7  A    between atoms: C_9  and  C_8 
REMARK    8  A    between atoms: C_10  and  O_23 
REMARK    9  A    between atoms: C_14  and  C_15 
REMARK   10  A    between atoms: C_15  and  C_16 
REMARK   11  A    between atoms: C_16  and  C_17 
REMARK   12  A    between atoms: C_17  and  C_18 
REMARK   13  A    between atoms: C_18  and  C_19 
REMARK   14  A    between atoms: C_19  and  C_20 
REMARK   15  A    between atoms: C_20  and  C_21 
ROOT
ATOM      1  C   UNL d   1       0.627  -2.127  -0.398  0.00  0.00     0.048 C 
ATOM      2  C   UNL d   1       1.870  -2.844   0.136  0.00  0.00     0.133 C 
ATOM      3  C   UNL d   1       1.589  -3.227   1.579  0.00  0.00     0.111 C 
ATOM      4  C   UNL d   1       0.384  -2.444   1.931  0.00  0.00     0.134 C 
ATOM      5  O   UNL d   1      -0.054  -2.391   3.069  0.00  0.00    -0.297 OA
ATOM      6  C   UNL d   1      -0.215  -1.698   0.795  0.00  0.00     0.065 C 
ENDROOT
BRANCH   1   7
ATOM      7  C   UNL d   1       0.990  -0.962  -1.271  0.00  0.00    -0.020 C 
ATOM      8  C   UNL d   1       1.688   0.079  -0.810  0.00  0.00     0.001 C 
BRANCH   8   9
ATOM      9  C   UNL d   1       2.034   1.224  -1.708  0.00  0.00     0.140 C 
BRANCH   9  10
ATOM     10  C   UNL d   1       2.621   2.391  -0.914  0.00  0.00     0.036 C 
BRANCH  10  11
ATOM     11  C   UNL d   1       3.925   2.041  -0.206  0.00  0.00     0.003 C 
BRANCH  11  12
ATOM     12  C   UNL d   1       5.102   2.182  -1.156  0.00  0.00    -0.000 C 
BRANCH  12  13
ATOM     13  C   UNL d   1       6.397   1.815  -0.453  0.00  0.00    -0.005 C 
ATOM     14  C   UNL d   1       6.827   2.930   0.482  0.00  0.00     0.005 C 
ENDBRANCH  12  13
ENDBRANCH  11  12
ENDBRANCH  10  11
ENDBRANCH   9  10
BRANCH   9  15
ATOM     15  O   UNL d   1       2.914   0.811  -2.710  0.00  0.00    -0.392 OA
ATOM     16  HO  UNL d   1       2.550   0.086  -3.203  1.00  0.00     0.210 HD
ENDBRANCH   9  15
ENDBRANCH   8   9
ENDBRANCH   1   7
BRANCH   6  17
ATOM     17  C   UNL d   1      -1.662  -2.113   0.561  0.00  0.00     0.013 C 
BRANCH  17  18
ATOM     18  C   UNL d   1      -2.607  -1.367   1.495  0.00  0.00     0.001 C 
BRANCH  18  19
ATOM     19  C   UNL d   1      -2.721   0.103   1.110  0.00  0.00     0.000 C 
BRANCH  19  20
ATOM     20  C   UNL d   1      -3.507   0.281  -0.183  0.00  0.00     0.001 C 
BRANCH  20  21
ATOM     21  C   UNL d   1      -4.995   0.028   0.033  0.00  0.00     0.010 C 
BRANCH  21  22
ATOM     22  C   UNL d   1      -5.645   1.161   0.816  0.00  0.00     0.113 C 
BRANCH  22  23
ATOM     23  C   UNL d   1      -5.817   2.367  -0.043  0.00  0.00     0.172 C 
ATOM     24  O   UNL d   1      -4.986   3.310   0.022  0.00  0.00    -0.648 OA
ATOM     25  O   UNL d   1      -6.878   2.440  -0.935  0.00  0.00    -0.648 OA
ENDBRANCH  22  23
ENDBRANCH  21  22
ENDBRANCH  20  21
ENDBRANCH  19  20
ENDBRANCH  18  19
ENDBRANCH  17  18
ENDBRANCH   6  17
BRANCH   2  26
ATOM     26  O   UNL d   1       2.118  -3.990  -0.618  0.00  0.00    -0.394 OA
ATOM     27  HO  UNL d   1       2.889  -4.435  -0.287  1.00  0.00     0.210 HD
ENDBRANCH   2  26
TORSDOF 15
