REMARK  2 active torsions:
REMARK  status: ('A' for Active; 'I' for Inactive)
REMARK    1  A    between atoms: C_5  and  N_1 
REMARK    2  A    between atoms: C_10  and  N_11 
ROOT
ATOM      1  C   UNL d   1       0.882   0.359  -0.279  0.00  0.00     0.213 C 
ATOM      2  C   UNL d   1       0.023   1.624  -0.131  0.00  0.00     0.035 C 
ATOM      3  C   UNL d   1      -1.466   1.338   0.094  0.00  0.00     0.002 C 
ATOM      4  C   UNL d   1      -1.889   0.057  -0.613  0.00  0.00     0.002 C 
ATOM      5  C   UNL d   1      -1.147  -1.157  -0.042  0.00  0.00     0.035 C 
ATOM      6  C   UNL d   1       0.270  -0.839   0.457  0.00  0.00     0.213 C 
ENDROOT
BRANCH   1   7
ATOM      7  N   UNL d   1       2.219   0.631   0.221  0.00  0.00    -0.073 N 
ATOM      8  HN3 UNL d   1       2.643   1.443  -0.229  1.00  0.00     0.274 HD
ATOM      9  HN2 UNL d   1       2.211   0.985   1.178  1.00  0.00     0.274 HD
ATOM     10  HN1 UNL d   1       2.790  -0.209   0.123  1.00  0.00     0.274 HD
ENDBRANCH   1   7
BRANCH   6  11
ATOM     11  N   UNL d   1       1.108  -2.015   0.293  0.00  0.00    -0.073 N 
ATOM     12  HN3 UNL d   1       0.712  -2.838   0.747  1.00  0.00     0.274 HD
ATOM     13  HN2 UNL d   1       1.104  -2.363  -0.665  1.00  0.00     0.274 HD
ATOM     14  HN1 UNL d   1       2.049  -1.803   0.625  1.00  0.00     0.274 HD
ENDBRANCH   6  11
TORSDOF 2
