REMARK  1 active torsions:
REMARK  status: ('A' for Active; 'I' for Inactive)
REMARK    1  A    between atoms: C_10  and  O_12 
ROOT
ATOM      1  C   UNL d   1       3.161   0.150   1.273  0.00  0.00     0.018 C 
ATOM      2  C   UNL d   1       2.455   0.291  -0.088  0.00  0.00    -0.009 C 
ATOM      3  C   UNL d   1       1.700   1.627  -0.124  0.00  0.00     0.013 C 
ATOM      4  C   UNL d   1       0.579   1.654   0.937  0.00  0.00     0.007 C 
ATOM      5  C   UNL d   1      -0.364   0.427   0.861  0.00  0.00     0.006 C 
ATOM      6  C   UNL d   1       0.428  -0.909   0.810  0.00  0.00    -0.004 C 
ATOM      7  C   UNL d   1       1.462  -0.832  -0.311  0.00  0.00     0.001 C 
ATOM      8  C   UNL d   1       2.303  -2.053  -0.619  0.00  0.00     0.009 C 
ATOM      9  C   UNL d   1       3.512  -1.485  -1.368  0.00  0.00     0.038 C 
ATOM     10  C   UNL d   1       3.453   0.042  -1.234  0.00  0.00     0.062 C 
ATOM     11  C   UNL d   1       2.979   0.625  -2.562  0.00  0.00     0.046 C 
ATOM     12  C   UNL d   1      -0.490  -2.133   0.709  0.00  0.00     0.010 C 
ATOM     13  C   UNL d   1      -1.485  -2.014  -0.439  0.00  0.00     0.036 C 
ATOM     14  C   UNL d   1      -2.260  -0.749  -0.285  0.00  0.00    -0.064 C 
ATOM     15  C   UNL d   1      -3.595  -0.805  -0.298  0.00  0.00     0.058 C 
ATOM     16  C   UNL d   1      -4.391   0.411  -0.120  0.00  0.00     0.172 C 
ATOM     17  O   UNL d   1      -5.645   0.367  -0.198  0.00  0.00    -0.289 OA
ATOM     18  C   UNL d   1      -3.714   1.671   0.195  0.00  0.00     0.052 C 
ATOM     19  C   UNL d   1      -2.381   1.733   0.190  0.00  0.00    -0.009 C 
ATOM     20  C   UNL d   1      -1.495   0.566  -0.197  0.00  0.00     0.001 C 
ATOM     21  C   UNL d   1      -0.933   0.864  -1.583  0.00  0.00     0.025 C 
ENDROOT
BRANCH  10  22
ATOM     22  O   UNL d   1       4.722   0.550  -0.944  0.00  0.00    -0.389 OA
ATOM     23  HO  UNL d   1       5.338   0.397  -1.651  1.00  0.00     0.210 HD
ENDBRANCH  10  22
TORSDOF 1
