REMARK  6 active torsions:
REMARK  status: ('A' for Active; 'I' for Inactive)
REMARK    1  A    between atoms: C_2  and  N_3 
REMARK       I    between atoms: N_6  and  C_7 
REMARK       I    between atoms: C_7  and  N_9 
REMARK    2  A    between atoms: N_9  and  CA_11 
REMARK    3  A    between atoms: CA_11  and  C_12 
REMARK    4  A    between atoms: CA_11  and  C_29 
REMARK       I    between atoms: C_12  and  N_14 
REMARK    5  A    between atoms: CA_16  and  N_14 
REMARK    6  A    between atoms: CA_22  and  C_26 
ROOT
ATOM      1  CA  UNL d   1       0.019  -1.897  -0.530  0.00  0.00     0.211 C 
ENDROOT
BRANCH   1   2
ATOM      2  N   UNL d   1      -1.084  -0.992  -0.232  0.00  0.00    -0.325 N 
ATOM      3  C   UNL d   1      -1.984  -1.196   0.861  0.00  0.00     0.326 C 
ATOM      4  N   UNL d   1      -3.070  -0.280   1.095  0.00  0.00    -0.260 N 
ATOM      5  O   UNL d   1      -1.832  -2.195   1.617  0.00  0.00    -0.247 OA
ATOM      6  C   UNL d   1      -4.071  -0.619   2.112  0.00  0.00     0.157 C 
ATOM      7  C   UNL d   1      -3.159   1.005   0.443  0.00  0.00     0.319 C 
ATOM      8  C   UNL d   1      -5.467  -0.202   1.651  0.00  0.00     0.146 C 
ATOM      9  N   UNL d   1      -5.486   1.222   1.328  0.00  0.00    -0.343 N 
ATOM     10  C   UNL d   1      -4.391   1.792   0.594  0.00  0.00     0.312 C 
ATOM     11  O   UNL d   1      -4.475   2.951   0.107  0.00  0.00    -0.262 OA
ATOM     12  O   UNL d   1      -2.198   1.462  -0.233  0.00  0.00    -0.262 OA
ATOM     13  HN  UNL d   1      -1.221  -0.177  -0.830  1.00  0.00     0.165 HD
BRANCH   9  14
ATOM     14  C   UNL d   1      -6.668   2.002   1.663  0.00  0.00     0.122 C 
ATOM     15  C   UNL d   1      -6.345   3.002   2.756  0.00  0.00     0.026 C 
ENDBRANCH   9  14
ENDBRANCH   1   2
BRANCH   1  16
ATOM     16  C   UNL d   1       1.011  -1.219  -1.418  0.00  0.00     0.245 C 
ATOM     17  O   UNL d   1       0.684  -0.853  -2.580  0.00  0.00    -0.271 OA
ATOM     18  N   UNL d   1       2.319  -0.948  -0.915  0.00  0.00    -0.344 N 
ATOM     19  HN  UNL d   1       2.570  -1.290   0.012  1.00  0.00     0.163 HD
BRANCH  18  20
ATOM     20  CA  UNL d   1       3.311  -0.199  -1.680  0.00  0.00     0.199 A 
ATOM     21  C   UNL d   1       3.224   1.235  -1.488  0.00  0.00     0.160 A 
ATOM     22  S   UNL d   1       1.887   1.898  -0.415  0.00  0.00    -0.135 SA
ATOM     23  N   UNL d   1       4.397   1.288  -0.671  0.00  0.00    -0.219 NA
ATOM     24  C   UNL d   1       3.027   2.187   1.011  0.00  0.00     0.029 C 
ATOM     25  C   UNL d   1       2.799   1.081   2.023  0.00  0.00     0.029 C 
ATOM     26  C   UNL d   1       2.687   3.510   1.684  0.00  0.00     0.029 C 
ATOM     27  CA  UNL d   1       4.487   2.093   0.516  0.00  0.00     0.186 C 
ATOM     28  C   UNL d   1       4.596  -0.157  -0.919  0.00  0.00     0.227 A 
ATOM     29  O   UNL d   1       5.451  -1.010  -0.567  0.00  0.00    -0.277 OA
BRANCH  27  30
ATOM     30  C   UNL d   1       5.106   3.414   0.165  0.00  0.00     0.193 C 
ATOM     31  O   UNL d   1       4.572   4.200  -0.849  0.00  0.00    -0.647 OA
ATOM     32  OXT UNL d   1       6.120   3.814   0.794  0.00  0.00    -0.647 OA
ENDBRANCH  27  30
ENDBRANCH  18  20
ENDBRANCH   1  16
BRANCH   1  33
ATOM     33  C   UNL d   1      -0.473  -3.183  -1.124  0.00  0.00    -0.026 A 
ATOM     34  C   UNL d   1      -0.008  -4.396  -0.604  0.00  0.00     0.010 A 
ATOM     35  C   UNL d   1      -0.447  -5.608  -1.146  0.00  0.00     0.001 A 
ATOM     36  C   UNL d   1      -1.350  -5.611  -2.213  0.00  0.00     0.000 A 
ATOM     37  C   UNL d   1      -1.813  -4.402  -2.741  0.00  0.00     0.001 A 
ATOM     38  C   UNL d   1      -1.375  -3.190  -2.199  0.00  0.00     0.010 A 
ENDBRANCH   1  33
TORSDOF 6
