REMARK  2 active torsions:
REMARK  status: ('A' for Active; 'I' for Inactive)
REMARK    1  A    between atoms: C_4  and  C_7 
REMARK    2  A    between atoms: C_10  and  O_11 
ROOT
ATOM      1  C   UNL d   1       0.077  -0.211  -0.003  0.00  0.00    -0.018 A 
ATOM      2  C   UNL d   1       0.753   0.798   0.700  0.00  0.00     0.015 A 
ATOM      3  C   UNL d   1       2.150   0.847   0.701  0.00  0.00     0.037 A 
ATOM      4  C   UNL d   1       2.892  -0.115  -0.003  0.00  0.00     0.068 A 
ATOM      5  C   UNL d   1       2.220  -1.121  -0.704  0.00  0.00     0.037 A 
ATOM      6  C   UNL d   1       0.823  -1.169  -0.705  0.00  0.00     0.015 A 
ENDROOT
BRANCH   1   7
ATOM      7  C   UNL d   1      -1.398  -0.262  -0.004  0.00  0.00     0.024 A 
ATOM      8  C   UNL d   1      -2.206   0.670   0.680  0.00  0.00     0.051 A 
ATOM      9  C   UNL d   1      -3.599   0.510   0.600  0.00  0.00     0.080 A 
ATOM     10  S   UNL d   1      -4.646   1.518   1.344  0.00  0.00    -0.072 SA
ATOM     11  S   UNL d   1      -4.110  -0.811  -0.330  0.00  0.00    -0.041 SA
ATOM     12  S   UNL d   1      -2.297  -1.450  -0.830  0.00  0.00    -0.051 SA
ENDBRANCH   1   7
BRANCH   4  13
ATOM     13  O   UNL d   1       4.289  -0.094  -0.022  0.00  0.00    -0.356 OA
ATOM     14  C   UNL d   1       5.051   0.891   0.662  0.00  0.00     0.210 C 
ENDBRANCH   4  13
TORSDOF 2
