REMARK  1 active torsions:
REMARK  status: ('A' for Active; 'I' for Inactive)
REMARK    1  A    between atoms: C_3  and  C_12 
ROOT
ATOM      1  C   UNL d   1       0.611  -2.751  -0.076  0.00  0.00     0.069 C 
ATOM      2  C   UNL d   1      -0.314  -1.584   0.022  0.00  0.00     0.019 A 
ATOM      3  C   UNL d   1       0.145  -0.244  -0.016  0.00  0.00    -0.002 A 
ATOM      4  C   UNL d   1      -0.814   0.778   0.016  0.00  0.00     0.042 A 
ATOM      5  C   UNL d   1      -2.174   0.487   0.098  0.00  0.00     0.113 A 
ATOM      6  C   UNL d   1      -2.579  -0.853   0.146  0.00  0.00     0.266 A 
ATOM      7  O   UNL d   1      -3.800  -1.154   0.225  0.00  0.00    -0.267 OA
ATOM      8  N   UNL d   1      -1.648  -1.841   0.102  0.00  0.00    -0.326 N 
ATOM      9  HN  UNL d   1      -1.960  -2.811   0.130  1.00  0.00     0.169 HD
ATOM     10  C   UNL d   1      -3.127   1.566   0.134  0.00  0.00     0.105 C 
ATOM     11  N   UNL d   1      -3.893   2.433   0.162  0.00  0.00    -0.191 NA
ENDROOT
BRANCH   3  12
ATOM     12  C   UNL d   1       1.582   0.135  -0.089  0.00  0.00    -0.021 A 
ATOM     13  C   UNL d   1       1.960   1.338  -0.706  0.00  0.00     0.029 A 
ATOM     14  C   UNL d   1       3.306   1.706  -0.749  0.00  0.00     0.088 A 
ATOM     15  N   UNL d   1       4.250   0.905  -0.188  0.00  0.00    -0.375 N 
ATOM     16  C   UNL d   1       3.917  -0.260   0.427  0.00  0.00     0.088 A 
ATOM     17  HN  UNL d   1       5.230   1.185  -0.229  1.00  0.00     0.164 HD
ATOM     18  C   UNL d   1       2.581  -0.661   0.490  0.00  0.00     0.029 A 
ENDBRANCH   3  12
TORSDOF 1
