REMARK  7 active torsions:
REMARK  status: ('A' for Active; 'I' for Inactive)
REMARK    1  A    between atoms: C_2  and  O_4 
REMARK    2  A    between atoms: C_5  and  O_4 
REMARK    3  A    between atoms: C_6  and  C_21 
REMARK    4  A    between atoms: N_14  and  C_17 
REMARK    5  A    between atoms: C_17  and  C_18 
REMARK    6  A    between atoms: C_18  and  N_29 
REMARK    7  A    between atoms: C_24  and  O_27 
ROOT
ATOM      1  C   UNL d   1      -0.111   0.111  -0.797  0.00  0.00     0.242 C 
ATOM      2  C   UNL d   1       1.093  -0.807  -0.490  0.00  0.00     0.124 C 
ATOM      3  S   UNL d   1       0.822  -1.955   0.917  0.00  0.00    -0.115 SA
ATOM      4  C   UNL d   1      -0.834  -2.471   0.440  0.00  0.00     0.028 A 
ATOM      5  C   UNL d   1      -1.015  -3.759  -0.073  0.00  0.00     0.021 A 
ATOM      6  C   UNL d   1      -2.299  -4.229  -0.357  0.00  0.00     0.002 A 
ATOM      7  C   UNL d   1      -3.409  -3.416  -0.121  0.00  0.00     0.002 A 
ATOM      8  C   UNL d   1      -3.236  -2.125   0.384  0.00  0.00     0.031 A 
ATOM      9  C   UNL d   1      -1.951  -1.635   0.661  0.00  0.00     0.054 A 
ATOM     10  N   UNL d   1      -1.782  -0.269   1.088  0.00  0.00    -0.313 N 
ATOM     11  C   UNL d   1      -0.826   0.589   0.436  0.00  0.00     0.255 C 
ATOM     12  O   UNL d   1      -0.571   1.731   0.908  0.00  0.00    -0.270 OA
ENDROOT
BRANCH   2  13
ATOM     13  C   UNL d   1       2.376  -0.053  -0.303  0.00  0.00    -0.041 A 
ATOM     14  C   UNL d   1       2.552   0.825   0.776  0.00  0.00     0.011 A 
ATOM     15  C   UNL d   1       3.753   1.524   0.924  0.00  0.00     0.037 A 
ATOM     16  C   UNL d   1       4.788   1.354  -0.002  0.00  0.00     0.068 A 
ATOM     17  C   UNL d   1       4.609   0.475  -1.082  0.00  0.00     0.037 A 
ATOM     18  C   UNL d   1       3.408  -0.224  -1.230  0.00  0.00     0.011 A 
BRANCH  16  19
ATOM     19  O   UNL d   1       5.976   2.068   0.174  0.00  0.00    -0.356 OA
ATOM     20  C   UNL d   1       7.077   1.957  -0.718  0.00  0.00     0.210 C 
ENDBRANCH  16  19
ENDBRANCH   2  13
BRANCH   1  21
ATOM     21  O   UNL d   1       0.232   1.198  -1.655  0.00  0.00    -0.305 OA
BRANCH  21  22
ATOM     22  C   UNL d   1       0.494   1.022  -3.015  0.00  0.00     0.255 C 
ATOM     23  C   UNL d   1       0.885   2.192  -3.841  0.00  0.00     0.126 C 
ATOM     24  O   UNL d   1       0.403  -0.116  -3.551  0.00  0.00    -0.266 OA
ENDBRANCH  21  22
ENDBRANCH   1  21
BRANCH  10  25
ATOM     25  C   UNL d   1      -2.673   0.281   2.104  0.00  0.00     0.162 C 
BRANCH  25  26
ATOM     26  C   UNL d   1      -3.846   0.990   1.443  0.00  0.00     0.291 C 
BRANCH  26  27
ATOM     27  N   UNL d   1      -4.746   1.505   2.460  0.00  0.00     0.081 N 
ATOM     28  C   UNL d   1      -5.816   0.534   2.611  0.00  0.00     0.309 C 
ATOM     29  C   UNL d   1      -5.352   2.703   1.909  0.00  0.00     0.309 C 
ENDBRANCH  26  27
ENDBRANCH  25  26
ENDBRANCH  10  25
TORSDOF 7
