REMARK  6 active torsions:
REMARK  status: ('A' for Active; 'I' for Inactive)
REMARK    1  A    between atoms: C_3  and  C_24 
REMARK    2  A    between atoms: C_10  and  C_11 
REMARK    3  A    between atoms: C_11  and  O_13 
REMARK    4  A    between atoms: O_13  and  C_14 
REMARK    5  A    between atoms: C_14  and  C_15 
REMARK    6  A    between atoms: C_15  and  N_16 
ROOT
ATOM      1  C   UNL d   1      -5.635  -0.291  -0.943  0.00  0.00     0.055 C 
ATOM      2  C   UNL d   1      -4.153  -0.135  -1.092  0.00  0.00     0.024 A 
ATOM      3  C   UNL d   1      -3.276  -0.118   0.022  0.00  0.00     0.096 A 
ATOM      4  O   UNL d   1      -1.961  -0.046  -0.184  0.00  0.00    -0.307 OA
ATOM      5  C   UNL d   1      -1.401   0.030  -1.388  0.00  0.00     0.106 A 
ATOM      6  C   UNL d   1      -2.218   0.033  -2.539  0.00  0.00     0.050 A 
ATOM      7  C   UNL d   1      -1.635   0.115  -3.810  0.00  0.00     0.018 A 
ATOM      8  C   UNL d   1      -0.250   0.194  -3.943  0.00  0.00     0.002 A 
ATOM      9  C   UNL d   1       0.561   0.190  -2.808  0.00  0.00     0.020 A 
ATOM     10  C   UNL d   1       0.005   0.108  -1.523  0.00  0.00     0.074 A 
ATOM     11  C   UNL d   1      -3.606  -0.054  -2.381  0.00  0.00     0.193 A 
ATOM     12  O   UNL d   1      -4.361  -0.065  -3.393  0.00  0.00    -0.287 OA
ENDROOT
BRANCH  10  13
ATOM     13  C   UNL d   1       0.922   0.108  -0.360  0.00  0.00     0.296 C 
ATOM     14  O   UNL d   1       0.472   0.035   0.816  0.00  0.00    -0.259 OA
BRANCH  13  15
ATOM     15  O   UNL d   1       2.301   0.190  -0.574  0.00  0.00    -0.316 OA
BRANCH  15  16
ATOM     16  C   UNL d   1       3.228   0.194   0.500  0.00  0.00     0.209 C 
BRANCH  16  17
ATOM     17  C   UNL d   1       4.638   0.289  -0.051  0.00  0.00     0.299 C 
BRANCH  17  18
ATOM     18  N   UNL d   1       5.595   0.289   1.042  0.00  0.00     0.090 N 
ATOM     19  C   UNL d   1       6.718   1.122   0.618  0.00  0.00     0.272 C 
ATOM     20  C   UNL d   1       7.751   1.260   1.744  0.00  0.00     0.030 C 
ATOM     21  C   UNL d   1       7.636   0.137   2.779  0.00  0.00     0.003 C 
ATOM     22  C   UNL d   1       7.307  -1.194   2.108  0.00  0.00     0.030 C 
ATOM     23  C   UNL d   1       6.069  -1.092   1.199  0.00  0.00     0.272 C 
ENDBRANCH  17  18
ENDBRANCH  16  17
ENDBRANCH  15  16
ENDBRANCH  13  15
ENDBRANCH  10  13
BRANCH   3  24
ATOM     24  C   UNL d   1      -3.734  -0.183   1.434  0.00  0.00    -0.002 A 
ATOM     25  C   UNL d   1      -5.009   0.253   1.829  0.00  0.00     0.014 A 
ATOM     26  C   UNL d   1      -5.393   0.211   3.172  0.00  0.00     0.001 A 
ATOM     27  C   UNL d   1      -4.501  -0.259   4.139  0.00  0.00     0.000 A 
ATOM     28  C   UNL d   1      -3.225  -0.682   3.762  0.00  0.00     0.001 A 
ATOM     29  C   UNL d   1      -2.843  -0.640   2.418  0.00  0.00     0.014 A 
ENDBRANCH   3  24
TORSDOF 6
