REMARK  2 active torsions:
REMARK  status: ('A' for Active; 'I' for Inactive)
REMARK    1  A    between atoms: C_2  and  C_3 
REMARK    2  A    between atoms: C_3  and  C_14 
ROOT
ATOM      1  C   UNL d   1      -0.405  -0.381  -0.246  0.00  0.00     0.149 C 
ATOM      2  C   UNL d   1      -0.741   0.735  -1.223  0.00  0.00     0.248 C 
ATOM      3  O   UNL d   1      -0.058   0.869  -2.274  0.00  0.00    -0.271 OA
ATOM      4  N   UNL d   1      -1.859   1.601  -1.024  0.00  0.00    -0.278 N 
ATOM      5  HN  UNL d   1      -2.103   2.276  -1.749  1.00  0.00     0.173 HD
ATOM      6  C   UNL d   1      -2.641   1.542   0.162  0.00  0.00     0.329 C 
ATOM      7  O   UNL d   1      -3.645   2.289   0.293  0.00  0.00    -0.247 OA
ATOM      8  N   UNL d   1      -2.274   0.652   1.207  0.00  0.00    -0.278 N 
ATOM      9  HN  UNL d   1      -2.818   0.643   2.070  1.00  0.00     0.173 HD
ATOM     10  C   UNL d   1      -1.158  -0.229   1.074  0.00  0.00     0.248 C 
ATOM     11  O   UNL d   1      -0.823  -0.927   2.069  0.00  0.00    -0.271 OA
ENDROOT
BRANCH   1  12
ATOM     12  C   UNL d   1      -0.867  -1.692  -0.918  0.00  0.00     0.030 C 
ATOM     13  C   UNL d   1      -0.567  -2.946  -0.106  0.00  0.00     0.007 C 
ENDBRANCH   1  12
BRANCH   1  14
ATOM     14  C   UNL d   1       1.105  -0.353  -0.003  0.00  0.00    -0.031 A 
ATOM     15  C   UNL d   1       1.657   0.569   0.905  0.00  0.00     0.009 A 
ATOM     16  C   UNL d   1       3.040   0.655   1.085  0.00  0.00     0.001 A 
ATOM     17  C   UNL d   1       3.893  -0.166   0.344  0.00  0.00     0.000 A 
ATOM     18  C   UNL d   1       3.363  -1.067  -0.582  0.00  0.00     0.001 A 
ATOM     19  C   UNL d   1       1.980  -1.152  -0.762  0.00  0.00     0.009 A 
ENDBRANCH   1  14
TORSDOF 2
