REMARK  11 active torsions:
REMARK  status: ('A' for Active; 'I' for Inactive)
REMARK    1  A    between atoms: C_2  and  C_3 
REMARK    2  A    between atoms: C_3  and  C_4 
REMARK    3  A    between atoms: C_4  and  C_5 
REMARK    4  A    between atoms: C_5  and  C_6 
REMARK    5  A    between atoms: C_6  and  C_7 
REMARK    6  A    between atoms: C_7  and  C_8 
REMARK    7  A    between atoms: C_8  and  C_9 
REMARK       I    between atoms: C_9  and  N_11 
REMARK    8  A    between atoms: N_11  and  C_13 
REMARK    9  A    between atoms: C_13  and  C_14 
REMARK   10  A    between atoms: C_16  and  O_17 
REMARK   11  A    between atoms: C_19  and  O_20 
ROOT
ATOM      1  C   UNL d   1       0.490  -1.457   0.339  0.00  0.00     0.217 C 
ATOM      2  O   UNL d   1      -0.081  -2.155  -0.540  0.00  0.00    -0.274 OA
ATOM      3  N   UNL d   1      -0.130  -1.231   1.607  0.00  0.00    -0.357 N 
ATOM      4  HN  UNL d   1       0.381  -0.698   2.312  1.00  0.00     0.162 HD
ENDROOT
BRANCH   3   5
ATOM      5  C   UNL d   1      -1.459  -1.727   1.936  0.00  0.00     0.161 C 
BRANCH   5   6
ATOM      6  C   UNL d   1      -2.503  -0.885   1.284  0.00  0.00    -0.038 A 
ATOM      7  C   UNL d   1      -3.127  -1.327   0.114  0.00  0.00     0.048 A 
ATOM      8  C   UNL d   1      -4.099  -0.532  -0.518  0.00  0.00     0.101 A 
ATOM      9  C   UNL d   1      -4.435   0.711   0.037  0.00  0.00     0.099 A 
ATOM     10  C   UNL d   1      -3.808   1.153   1.206  0.00  0.00     0.040 A 
ATOM     11  C   UNL d   1      -2.842   0.357   1.828  0.00  0.00     0.012 A 
BRANCH   8  12
ATOM     12  O   UNL d   1      -4.735  -0.956  -1.689  0.00  0.00    -0.353 OA
ATOM     13  C   UNL d   1      -4.447  -2.200  -2.314  0.00  0.00     0.210 C 
ENDBRANCH   8  12
BRANCH   9  14
ATOM     14  O   UNL d   1      -5.394   1.513  -0.571  0.00  0.00    -0.358 OA
ATOM     15  HO  UNL d   1      -5.622   2.355  -0.195  1.00  0.00     0.217 HD
ENDBRANCH   9  14
ENDBRANCH   5   6
ENDBRANCH   3   5
BRANCH   1  16
ATOM     16  C   UNL d   1       1.810  -0.839   0.046  0.00  0.00     0.103 C 
BRANCH  16  17
ATOM     17  C   UNL d   1       1.609   0.559  -0.511  0.00  0.00     0.009 C 
BRANCH  17  18
ATOM     18  C   UNL d   1       2.950   1.214  -0.793  0.00  0.00     0.000 C 
BRANCH  18  19
ATOM     19  C   UNL d   1       3.604   1.661   0.505  0.00  0.00     0.000 C 
BRANCH  19  20
ATOM     20  C   UNL d   1       4.958   2.286   0.227  0.00  0.00     0.000 C 
BRANCH  20  21
ATOM     21  C   UNL d   1       5.980   1.212  -0.097  0.00  0.00    -0.000 C 
BRANCH  21  22
ATOM     22  C   UNL d   1       7.320   1.858  -0.378  0.00  0.00    -0.005 C 
ATOM     23  C   UNL d   1       8.339   0.786  -0.702  0.00  0.00     0.005 C 
ENDBRANCH  21  22
ENDBRANCH  20  21
ENDBRANCH  19  20
ENDBRANCH  18  19
ENDBRANCH  17  18
ENDBRANCH  16  17
ENDBRANCH   1  16
TORSDOF 11
