REMARK  6 active torsions:
REMARK  status: ('A' for Active; 'I' for Inactive)
REMARK    1  A    between atoms: C_4  and  C_7 
REMARK    2  A    between atoms: C_7  and  C_8 
REMARK    3  A    between atoms: C_7  and  C_15 
REMARK    4  A    between atoms: C_7  and  O_21 
REMARK    5  A    between atoms: C_8  and  C_9 
REMARK    6  A    between atoms: C_9  and  N_23 
ROOT
ATOM      1  C   UNL d   1      -0.570   0.209  -0.379  0.00  0.00     0.090 C 
ENDROOT
BRANCH   1   2
ATOM      2  C   UNL d   1      -1.148  -1.193  -0.285  0.00  0.00    -0.024 A 
ATOM      3  C   UNL d   1      -1.742  -1.790  -1.410  0.00  0.00     0.010 A 
ATOM      4  C   UNL d   1      -2.263  -3.085  -1.335  0.00  0.00     0.001 A 
ATOM      5  C   UNL d   1      -2.193  -3.798  -0.136  0.00  0.00     0.000 A 
ATOM      6  C   UNL d   1      -1.601  -3.218   0.988  0.00  0.00     0.001 A 
ATOM      7  C   UNL d   1      -1.079  -1.923   0.914  0.00  0.00     0.010 A 
ENDBRANCH   1   2
BRANCH   1   8
ATOM      8  C   UNL d   1       0.593   0.214  -1.387  0.00  0.00     0.073 C 
BRANCH   8   9
ATOM      9  C   UNL d   1       1.736  -0.728  -1.010  0.00  0.00     0.276 C 
BRANCH   9  10
ATOM     10  N   UNL d   1       2.526  -0.163   0.071  0.00  0.00     0.088 N 
ATOM     11  C   UNL d   1       3.696   0.472  -0.534  0.00  0.00     0.272 C 
ATOM     12  C   UNL d   1       4.552   1.168   0.531  0.00  0.00     0.030 C 
ATOM     13  C   UNL d   1       4.276   0.634   1.940  0.00  0.00     0.003 C 
ATOM     14  C   UNL d   1       4.052  -0.877   1.918  0.00  0.00     0.030 C 
ATOM     15  C   UNL d   1       2.978  -1.288   0.895  0.00  0.00     0.272 C 
ENDBRANCH   9  10
ENDBRANCH   8   9
ENDBRANCH   1   8
BRANCH   1  16
ATOM     16  C   UNL d   1      -1.656   1.201  -0.854  0.00  0.00     0.025 C 
ATOM     17  C   UNL d   1      -2.891   1.190   0.070  0.00  0.00     0.008 C 
ATOM     18  C   UNL d   1      -3.726   2.454  -0.112  0.00  0.00     0.000 C 
ATOM     19  C   UNL d   1      -2.930   3.710   0.266  0.00  0.00     0.000 C 
ATOM     20  C   UNL d   1      -1.416   3.559   0.070  0.00  0.00     0.000 C 
ATOM     21  C   UNL d   1      -1.098   2.622  -1.093  0.00  0.00     0.008 C 
ENDBRANCH   1  16
BRANCH   1  22
ATOM     22  O   UNL d   1      -0.097   0.630   0.871  0.00  0.00    -0.385 OA
ATOM     23  HO  UNL d   1       0.264   1.507   0.812  1.00  0.00     0.211 HD
ENDBRANCH   1  22
TORSDOF 6
