REMARK  4 active torsions:
REMARK  status: ('A' for Active; 'I' for Inactive)
REMARK    1  A    between atoms: N_2  and  O_4 
REMARK    2  A    between atoms: C_5  and  O_4 
REMARK    3  A    between atoms: C_9  and  O_13 
REMARK    4  A    between atoms: O_13  and  N_14 
ROOT
ATOM      1  C   UNL d   1       1.682   0.108   0.134  0.00  0.00     0.214 C 
ATOM      2  C   UNL d   1       1.078  -0.896   1.081  0.00  0.00     0.205 C 
ATOM      3  O   UNL d   1      -0.224  -0.479   1.410  0.00  0.00    -0.378 OA
ATOM      4  C   UNL d   1      -0.634   0.441   0.422  0.00  0.00     0.186 C 
ATOM      5  C   UNL d   1      -1.743  -0.155  -0.399  0.00  0.00     0.214 C 
ATOM      6  C   UNL d   1      -1.210  -0.096  -1.809  0.00  0.00     0.205 C 
ATOM      7  O   UNL d   1       0.190  -0.037  -1.745  0.00  0.00    -0.378 OA
ATOM      8  C   UNL d   1       0.482   0.676  -0.567  0.00  0.00     0.186 C 
ENDROOT
BRANCH   1   9
ATOM      9  O   UNL d   1       2.579  -0.524  -0.775  0.00  0.00    -0.211 OA
BRANCH   9  10
ATOM     10  N   UNL d   1       3.837  -0.940  -0.387  0.00  0.00     0.005 N 
ATOM     11  O   UNL d   1       4.653  -1.564  -1.300  0.00  0.00    -0.511 OA
ATOM     12  O   UNL d   1       4.252  -0.737   0.773  0.00  0.00    -0.511 OA
ENDBRANCH   9  10
ENDBRANCH   1   9
BRANCH   5  13
ATOM     13  O   UNL d   1      -2.914   0.646  -0.300  0.00  0.00    -0.211 OA
BRANCH  13  14
ATOM     14  N   UNL d   1      -3.722   0.621   0.819  0.00  0.00     0.005 N 
ATOM     15  O   UNL d   1      -4.829   1.433   0.871  0.00  0.00    -0.511 OA
ATOM     16  O   UNL d   1      -3.476  -0.146   1.773  0.00  0.00    -0.511 OA
ENDBRANCH  13  14
ENDBRANCH   5  13
TORSDOF 4
