REMARK  15 active torsions:
REMARK  status: ('A' for Active; 'I' for Inactive)
REMARK    1  A    between atoms: C_2  and  C_3 
REMARK    2  A    between atoms: C_3  and  O_5 
REMARK    3  A    between atoms: C_6  and  O_5 
REMARK    4  A    between atoms: C_6  and  C_7 
REMARK    5  A    between atoms: C_6  and  O_10 
REMARK    6  A    between atoms: P_11  and  O_10 
REMARK    7  A    between atoms: P_11  and  C_13 
REMARK    8  A    between atoms: P_11  and  C_23 
REMARK    9  A    between atoms: C_13  and  C_14 
REMARK   10  A    between atoms: C_14  and  C_15 
REMARK   11  A    between atoms: C_15  and  C_16 
REMARK   12  A    between atoms: C_16  and  C_17 
REMARK   13  A    between atoms: C_23  and  C_24 
REMARK       I    between atoms: C_24  and  N_26 
REMARK   14  A    between atoms: C_28  and  C_33 
REMARK   15  A    between atoms: C_30  and  C_31 
ROOT
ATOM      1  P   UNL d   1       0.929   1.912  -1.361  0.00  0.00     0.208 P 
ATOM      2  O   UNL d   1       0.971   2.001  -2.870  0.00  0.00    -0.291 OA
ENDROOT
BRANCH   1   3
ATOM      3  O   UNL d   1       2.041   3.035  -0.732  0.00  0.00    -0.301 OA
BRANCH   3   4
ATOM      4  C   UNL d   1       2.182   2.738   0.630  0.00  0.00     0.280 C 
BRANCH   4   5
ATOM      5  O   UNL d   1       1.573   3.740   1.452  0.00  0.00    -0.289 OA
BRANCH   5   6
ATOM      6  C   UNL d   1       1.660   5.119   1.234  0.00  0.00     0.260 C 
ATOM      7  O   UNL d   1       2.252   5.588   0.225  0.00  0.00    -0.265 OA
BRANCH   6   8
ATOM      8  C   UNL d   1       1.003   6.048   2.190  0.00  0.00     0.107 C 
ATOM      9  C   UNL d   1      -0.494   6.053   1.954  0.00  0.00     0.015 C 
ENDBRANCH   6   8
ENDBRANCH   5   6
ENDBRANCH   4   5
BRANCH   4  10
ATOM     10  C   UNL d   1       3.647   2.479   0.995  0.00  0.00     0.034 C 
ATOM     11  C   UNL d   1       4.530   3.695   0.777  0.00  0.00     0.014 C 
ATOM     12  C   UNL d   1       3.763   2.005   2.430  0.00  0.00     0.014 C 
ENDBRANCH   4  10
ENDBRANCH   3   4
ENDBRANCH   1   3
BRANCH   1  13
ATOM     13  C   UNL d   1       1.348   0.206  -0.861  0.00  0.00     0.102 C 
BRANCH  13  14
ATOM     14  C   UNL d   1       2.727  -0.203  -1.358  0.00  0.00     0.010 C 
BRANCH  14  15
ATOM     15  C   UNL d   1       2.706  -0.594  -2.834  0.00  0.00     0.005 C 
BRANCH  15  16
ATOM     16  C   UNL d   1       1.779  -1.778  -3.116  0.00  0.00     0.038 C 
BRANCH  16  17
ATOM     17  C   UNL d   1       2.245  -3.024  -2.438  0.00  0.00    -0.058 A 
ATOM     18  C   UNL d   1       1.605  -3.458  -1.272  0.00  0.00     0.007 A 
ATOM     19  C   UNL d   1       2.044  -4.614  -0.622  0.00  0.00     0.001 A 
ATOM     20  C   UNL d   1       3.125  -5.337  -1.136  0.00  0.00     0.000 A 
ATOM     21  C   UNL d   1       3.766  -4.904  -2.301  0.00  0.00     0.001 A 
ATOM     22  C   UNL d   1       3.327  -3.748  -2.951  0.00  0.00     0.007 A 
ENDBRANCH  16  17
ENDBRANCH  15  16
ENDBRANCH  14  15
ENDBRANCH  13  14
ENDBRANCH   1  13
BRANCH   1  23
ATOM     23  C   UNL d   1      -0.767   2.330  -0.835  0.00  0.00     0.204 C 
BRANCH  23  24
ATOM     24  C   UNL d   1      -1.114   1.679   0.466  0.00  0.00     0.229 C 
ATOM     25  O   UNL d   1      -0.910   2.306   1.540  0.00  0.00    -0.273 OA
ATOM     26  N   UNL d   1      -1.663   0.352   0.498  0.00  0.00    -0.337 N 
ATOM     27  C   UNL d   1      -1.900  -0.389   1.728  0.00  0.00     0.188 C 
ATOM     28  C   UNL d   1      -1.849  -0.452  -0.694  0.00  0.00     0.132 C 
ATOM     29  C   UNL d   1      -2.301  -1.791   1.302  0.00  0.00     0.043 C 
ATOM     30  C   UNL d   1      -2.039  -1.872  -0.200  0.00  0.00     0.010 C 
BRANCH  27  31
ATOM     31  C   UNL d   1      -3.004   0.233   2.526  0.00  0.00     0.197 C 
ATOM     32  O   UNL d   1      -4.108   0.511   1.987  0.00  0.00    -0.646 OA
ATOM     33  O   UNL d   1      -2.813   0.485   3.878  0.00  0.00    -0.646 OA
ENDBRANCH  27  31
BRANCH  30  34
ATOM     34  C   UNL d   1      -3.150  -2.593  -0.967  0.00  0.00    -0.009 C 
ATOM     35  C   UNL d   1      -3.110  -4.109  -0.708  0.00  0.00     0.005 C 
ATOM     36  C   UNL d   1      -4.213  -4.553   0.252  0.00  0.00     0.000 C 
ATOM     37  C   UNL d   1      -5.607  -4.210  -0.293  0.00  0.00     0.000 C 
ATOM     38  C   UNL d   1      -5.644  -2.929  -1.141  0.00  0.00     0.000 C 
ATOM     39  C   UNL d   1      -4.537  -1.959  -0.739  0.00  0.00     0.005 C 
ENDBRANCH  30  34
ENDBRANCH  23  24
ENDBRANCH   1  23
TORSDOF 15
