REMARK  6 active torsions:
REMARK  status: ('A' for Active; 'I' for Inactive)
REMARK    1  A    between atoms: O_2  and  C_3 
REMARK    2  A    between atoms: C_5  and  C_11 
REMARK    3  A    between atoms: C_8  and  O_9 
REMARK    4  A    between atoms: C_15  and  O_16 
REMARK    5  A    between atoms: C_19  and  O_20 
REMARK    6  A    between atoms: C_25  and  O_26 
ROOT
ATOM      1  C   UNL d   1       0.208   0.039   0.043  0.00  0.00     0.123 A 
ATOM      2  O   UNL d   1      -0.808   0.882   0.222  0.00  0.00    -0.306 OA
ATOM      3  C   UNL d   1      -2.081   0.504   0.236  0.00  0.00     0.096 A 
ATOM      4  C   UNL d   1      -3.074   1.468   0.432  0.00  0.00     0.075 A 
ATOM      5  C   UNL d   1      -4.418   1.098   0.451  0.00  0.00     0.071 A 
ATOM      6  C   UNL d   1      -4.779  -0.238   0.275  0.00  0.00     0.074 A 
ATOM      7  C   UNL d   1      -3.800  -1.217   0.079  0.00  0.00     0.085 A 
ATOM      8  C   UNL d   1      -2.433  -0.853   0.057  0.00  0.00     0.084 A 
ATOM      9  C   UNL d   1      -1.390  -1.779  -0.136  0.00  0.00     0.223 A 
ATOM     10  O   UNL d   1      -1.631  -3.006  -0.302  0.00  0.00    -0.284 OA
ATOM     11  C   UNL d   1      -0.063  -1.336  -0.143  0.00  0.00     0.152 A 
ENDROOT
BRANCH   1  12
ATOM     12  C   UNL d   1       1.583   0.606   0.051  0.00  0.00     0.004 A 
ATOM     13  C   UNL d   1       2.725  -0.190  -0.128  0.00  0.00     0.054 A 
ATOM     14  C   UNL d   1       4.012   0.373  -0.116  0.00  0.00     0.102 A 
ATOM     15  C   UNL d   1       4.155   1.752   0.078  0.00  0.00     0.099 A 
ATOM     16  C   UNL d   1       3.026   2.555   0.257  0.00  0.00     0.040 A 
ATOM     17  C   UNL d   1       1.751   1.986   0.244  0.00  0.00     0.017 A 
BRANCH  14  18
ATOM     18  O   UNL d   1       5.153  -0.417  -0.294  0.00  0.00    -0.353 OA
ATOM     19  C   UNL d   1       5.090  -1.823  -0.496  0.00  0.00     0.210 C 
ENDBRANCH  14  18
BRANCH  15  20
ATOM     20  O   UNL d   1       5.418   2.332   0.094  0.00  0.00    -0.358 OA
ATOM     21  HO  UNL d   1       6.185   1.786  -0.028  1.00  0.00     0.217 HD
ENDBRANCH  15  20
ENDBRANCH   1  12
BRANCH  11  22
ATOM     22  O   UNL d   1       0.959  -2.262  -0.335  0.00  0.00    -0.355 OA
ATOM     23  HO  UNL d   1       1.860  -1.961  -0.340  1.00  0.00     0.218 HD
ENDBRANCH  11  22
BRANCH   5  24
ATOM     24  O   UNL d   1      -5.399   2.061   0.646  0.00  0.00    -0.361 OA
ATOM     25  HO  UNL d   1      -6.315   1.809   0.659  1.00  0.00     0.217 HD
ENDBRANCH   5  24
BRANCH   7  26
ATOM     26  O   UNL d   1      -4.206  -2.536  -0.092  0.00  0.00    -0.360 OA
ATOM     27  HO  UNL d   1      -3.541  -3.201  -0.226  1.00  0.00     0.217 HD
ENDBRANCH   7  26
TORSDOF 6
