REMARK  Name = fda_4312
REMARK  1 active torsions:
REMARK  status: ('A' for Active; 'I' for Inactive)
REMARK    1  A    between atoms: C_10  and  C_11
REMARK                            x       y       z     vdW  Elec       q    Type
REMARK                         _______ _______ _______ _____ _____    ______ ____
ROOT
ATOM      1  C   UNL A   1      -1.965   0.995  -3.101  0.00  0.00    +0.003 C 
ATOM      2  C   UNL A   1      -2.219   0.390  -1.722  0.00  0.00    +0.037 C 
ATOM      3  C   UNL A   1      -1.874   1.473  -0.686  0.00  0.00    +0.003 C 
ATOM      4  C   UNL A   1      -0.441   1.341  -0.203  0.00  0.00    +0.000 C 
ATOM      5  C   UNL A   1      -0.312   0.039   0.590  0.00  0.00    +0.004 C 
ATOM      6  C   UNL A   1      -0.812  -1.200  -0.221  0.00  0.00    +0.001 C 
ATOM      7  C   UNL A   1      -1.361  -0.884  -1.629  0.00  0.00    +0.003 C 
ATOM      8  C   UNL A   1      -2.255  -2.030  -2.100  0.00  0.00    +0.004 C 
ATOM      9  C   UNL A   1      -3.666  -1.479  -2.259  0.00  0.00    +0.043 C 
ATOM     10  C   UNL A   1      -3.675  -0.112  -1.602  0.00  0.00    +0.180 C 
ATOM     11  O   UNL A   1      -4.572   0.732  -2.264  0.00  0.00    -0.212 OA
ATOM     12  C   UNL A   1       0.222  -2.330  -0.306  0.00  0.00    +0.004 C 
ATOM     13  C   UNL A   1       1.598  -1.803  -0.704  0.00  0.00    +0.022 C 
ATOM     14  C   UNL A   1       2.064  -0.739   0.245  0.00  0.00    -0.041 C 
ATOM     15  C   UNL A   1       3.370  -0.432   0.243  0.00  0.00    +0.031 C 
ATOM     16  C   UNL A   1       3.857   0.584   1.169  0.00  0.00    +0.172 A 
ATOM     17  C   UNL A   1       3.029   1.310   1.959  0.00  0.00    +0.038 A 
ATOM     18  C   UNL A   1       3.841   2.187   2.646  0.00  0.00    +0.139 A 
ATOM     19  N   UNL A   1       5.114   1.925   2.263  0.00  0.00    -0.076 NA
ATOM     20  O   UNL A   1       5.088   0.966   1.379  0.00  0.00    -0.354 OA
ATOM     21  C   UNL A   1       1.542   1.226   1.872  0.00  0.00    +0.035 C 
ATOM     22  C   UNL A   1       1.078  -0.129   1.261  0.00  0.00    +0.019 C 
ATOM     23  C   UNL A   1       0.931  -1.097   2.429  0.00  0.00    +0.004 C 
ENDROOT
BRANCH  10  24
ATOM     24  C   UNL A   1      -4.114  -0.273  -0.202  0.00  0.00    -0.049 C 
ATOM     25  C   UNL A   1      -4.470  -0.406   0.943  0.00  0.00    -0.012 C 
ENDBRANCH  10  24
TORSDOF 1
