REMARK  4 active torsions:
REMARK  status: ('A' for Active; 'I' for Inactive)
REMARK    1  A    between atoms: N_1  and  C_17 
REMARK    2  A    between atoms: C_3  and  N_4 
REMARK    3  A    between atoms: C_5  and  N_4 
REMARK    4  A    between atoms: N_6  and  C_8 
ROOT
ATOM      1  N   UNL d   1      -0.316  -0.884  -0.868  0.00  0.00    -0.344 N 
ATOM      2  C   UNL d   1      -0.718  -0.097  -2.029  0.00  0.00     0.158 C 
ENDROOT
BRANCH   1   3
ATOM      3  C   UNL d   1       1.009  -0.771  -0.348  0.00  0.00     0.183 C 
ATOM      4  N   UNL d   1       1.817   0.155  -0.760  0.00  0.00    -0.352 N 
ATOM      5  HN  UNL d   1       1.464   0.797  -1.470  1.00  0.00     0.166 HD
BRANCH   4   6
ATOM      6  C   UNL d   1       3.166   0.358  -0.304  0.00  0.00     0.038 A 
ATOM      7  C   UNL d   1       3.809  -0.441   0.681  0.00  0.00    -0.035 A 
ATOM      8  C   UNL d   1       3.151  -1.592   1.363  0.00  0.00     0.050 C 
ATOM      9  C   UNL d   1       5.128  -0.154   1.051  0.00  0.00     0.015 A 
ATOM     10  C   UNL d   1       5.817   0.907   0.464  0.00  0.00    -0.061 A 
ATOM     11  C   UNL d   1       7.217   1.198   0.868  0.00  0.00     0.048 C 
ATOM     12  C   UNL d   1       5.191   1.693  -0.503  0.00  0.00     0.009 A 
ATOM     13  C   UNL d   1       3.876   1.418  -0.881  0.00  0.00     0.030 A 
ENDBRANCH   4   6
ENDBRANCH   1   3
BRANCH   1  14
ATOM     14  C   UNL d   1      -1.102  -2.005  -0.450  0.00  0.00     0.183 C 
ATOM     15  N   UNL d   1      -2.394  -1.964  -0.290  0.00  0.00    -0.352 N 
ATOM     16  HN  UNL d   1      -2.856  -2.856  -0.112  1.00  0.00     0.166 HD
BRANCH  15  17
ATOM     17  C   UNL d   1      -3.244  -0.805  -0.338  0.00  0.00     0.038 A 
ATOM     18  C   UNL d   1      -4.580  -0.935  -0.760  0.00  0.00    -0.035 A 
ATOM     19  C   UNL d   1      -5.114  -2.243  -1.235  0.00  0.00     0.050 C 
ATOM     20  C   UNL d   1      -5.430   0.176  -0.750  0.00  0.00     0.015 A 
ATOM     21  C   UNL d   1      -4.965   1.414  -0.302  0.00  0.00    -0.061 A 
ATOM     22  C   UNL d   1      -5.873   2.590  -0.294  0.00  0.00     0.048 C 
ATOM     23  C   UNL d   1      -3.650   1.544   0.148  0.00  0.00     0.009 A 
ATOM     24  C   UNL d   1      -2.796   0.439   0.139  0.00  0.00     0.030 A 
ENDBRANCH  15  17
ENDBRANCH   1  14
TORSDOF 4
