REMARK  0 active torsions:
REMARK  status: ('A' for Active; 'I' for Inactive)
REMARK       I    between atoms: N_15  and  C_16 
ROOT
ATOM      1  C   UNL d   1      -3.644  -1.037  -0.975  0.00  0.00     0.001 A 
ATOM      2  C   UNL d   1      -3.321   0.234  -1.449  0.00  0.00     0.002 A 
ATOM      3  C   UNL d   1      -2.119   0.833  -1.070  0.00  0.00     0.031 A 
ATOM      4  C   UNL d   1      -1.223   0.164  -0.221  0.00  0.00     0.054 A 
ATOM      5  C   UNL d   1      -1.539  -1.132   0.236  0.00  0.00    -0.009 A 
ATOM      6  C   UNL d   1      -2.759  -1.712  -0.132  0.00  0.00     0.014 A 
ATOM      7  C   UNL d   1      -0.679  -1.906   1.145  0.00  0.00     0.014 C 
ATOM      8  C   UNL d   1       0.654  -1.877   1.214  0.00  0.00     0.014 C 
ATOM      9  C   UNL d   1       1.569  -1.064   0.397  0.00  0.00    -0.009 A 
ATOM     10  C   UNL d   1       2.845  -1.587   0.162  0.00  0.00     0.014 A 
ATOM     11  C   UNL d   1       3.784  -0.870  -0.583  0.00  0.00     0.001 A 
ATOM     12  C   UNL d   1       3.458   0.388  -1.088  0.00  0.00     0.002 A 
ATOM     13  C   UNL d   1       2.197   0.931  -0.839  0.00  0.00     0.031 A 
ATOM     14  C   UNL d   1       1.245   0.219  -0.092  0.00  0.00     0.054 A 
ATOM     15  N   UNL d   1      -0.022   0.829   0.197  0.00  0.00    -0.265 N 
ATOM     16  C   UNL d   1      -0.083   2.127   0.824  0.00  0.00     0.340 C 
ATOM     17  O   UNL d   1       0.975   2.734   1.143  0.00  0.00    -0.250 OA
ATOM     18  N   UNL d   1      -1.339   2.728   1.131  0.00  0.00    -0.039 NA
ENDROOT
TORSDOF 0
