REMARK  9 active torsions:
REMARK  status: ('A' for Active; 'I' for Inactive)
REMARK    1  A    between atoms: N_9  and  C_22 
REMARK    2  A    between atoms: C_22  and  C_23 
REMARK    3  A    between atoms: C_23  and  C_24 
REMARK    4  A    between atoms: C_23  and  O_33 
REMARK    5  A    between atoms: C_24  and  C_25 
REMARK    6  A    between atoms: C_24  and  O_31 
REMARK    7  A    between atoms: C_25  and  C_26 
REMARK    8  A    between atoms: C_25  and  O_29 
REMARK    9  A    between atoms: C_26  and  O_27 
ROOT
ATOM      1  C   UNL d   1      -3.995  -3.357   1.077  0.00  0.00     0.049 C 
ATOM      2  C   UNL d   1      -2.897  -2.352   0.990  0.00  0.00    -0.054 A 
ATOM      3  C   UNL d   1      -3.174  -1.103   0.430  0.00  0.00     0.039 A 
ATOM      4  C   UNL d   1      -2.176  -0.132   0.328  0.00  0.00     0.060 A 
ATOM      5  C   UNL d   1      -0.861  -0.409   0.790  0.00  0.00     0.063 A 
ATOM      6  C   UNL d   1      -0.601  -1.667   1.359  0.00  0.00     0.039 A 
ATOM      7  C   UNL d   1      -1.603  -2.635   1.461  0.00  0.00    -0.054 A 
ATOM      8  C   UNL d   1      -1.265  -3.953   2.069  0.00  0.00     0.049 C 
ATOM      9  N   UNL d   1       0.129   0.540   0.680  0.00  0.00    -0.327 N 
ATOM     10  C   UNL d   1      -0.169   1.771   0.166  0.00  0.00     0.145 A 
ATOM     11  N   UNL d   1       0.758   2.761   0.088  0.00  0.00    -0.292 N 
ATOM     12  HN  UNL d   1       1.706   2.589   0.424  1.00  0.00     0.172 HD
ATOM     13  C   UNL d   1       0.443   3.978  -0.431  0.00  0.00     0.328 A 
ATOM     14  O   UNL d   1       1.323   4.875  -0.495  0.00  0.00    -0.247 OA
ATOM     15  N   UNL d   1      -0.816   4.235  -0.884  0.00  0.00    -0.273 N 
ATOM     16  HN  UNL d   1      -1.023   5.156  -1.272  1.00  0.00     0.173 HD
ATOM     17  C   UNL d   1      -1.805   3.304  -0.835  0.00  0.00     0.280 A 
ATOM     18  O   UNL d   1      -2.956   3.591  -1.262  0.00  0.00    -0.265 OA
ATOM     19  C   UNL d   1      -1.535   2.043  -0.309  0.00  0.00     0.146 A 
ATOM     20  N   UNL d   1      -2.478   1.077  -0.210  0.00  0.00    -0.347 N 
ATOM     21  HN  UNL d   1      -3.425   1.260  -0.543  1.00  0.00     0.166 HD
ENDROOT
BRANCH   9  22
ATOM     22  C   UNL d   1       1.495   0.252   1.138  0.00  0.00     0.165 C 
BRANCH  22  23
ATOM     23  C   UNL d   1       2.412  -0.222   0.004  0.00  0.00     0.167 C 
BRANCH  23  24
ATOM     24  C   UNL d   1       1.933  -1.523  -0.652  0.00  0.00     0.179 C 
BRANCH  24  25
ATOM     25  C   UNL d   1       3.079  -2.348  -1.239  0.00  0.00     0.173 C 
BRANCH  25  26
ATOM     26  C   UNL d   1       4.016  -2.854  -0.153  0.00  0.00     0.198 C 
BRANCH  26  27
ATOM     27  O   UNL d   1       3.358  -3.789   0.646  0.00  0.00    -0.398 OA
ATOM     28  HO  UNL d   1       3.943  -4.106   1.324  1.00  0.00     0.209 HD
ENDBRANCH  26  27
ENDBRANCH  25  26
BRANCH  25  29
ATOM     29  O   UNL d   1       3.799  -1.605  -2.177  0.00  0.00    -0.391 OA
ATOM     30  HO  UNL d   1       4.511  -2.117  -2.541  1.00  0.00     0.210 HD
ENDBRANCH  25  29
ENDBRANCH  24  25
BRANCH  24  31
ATOM     31  O   UNL d   1       0.976  -1.266  -1.637  0.00  0.00    -0.390 OA
ATOM     32  HO  UNL d   1       0.679  -2.071  -2.044  1.00  0.00     0.210 HD
ENDBRANCH  24  31
ENDBRANCH  23  24
BRANCH  23  33
ATOM     33  O   UNL d   1       2.612   0.786  -0.942  0.00  0.00    -0.391 OA
ATOM     34  HO  UNL d   1       3.180   0.492  -1.644  1.00  0.00     0.210 HD
ENDBRANCH  23  33
ENDBRANCH  22  23
ENDBRANCH   9  22
TORSDOF 9
