REMARK  6 active torsions:
REMARK  status: ('A' for Active; 'I' for Inactive)
REMARK    1  A    between atoms: C_16  and  O_30 
REMARK    2  A    between atoms: C_19  and  C_20 
REMARK    3  A    between atoms: C_19  and  O_27 
REMARK    4  A    between atoms: C_20  and  C_22 
REMARK    5  A    between atoms: C_22  and  O_23 
REMARK    6  A    between atoms: O_23  and  C_24 
ROOT
ATOM      1  C   UNL d   1       3.679   0.066  -2.243  0.00  0.00     0.013 C 
ATOM      2  C   UNL d   1       2.460  -0.169  -1.363  0.00  0.00     0.025 C 
ATOM      3  C   UNL d   1       1.180   0.074  -2.134  0.00  0.00     0.013 C 
ATOM      4  C   UNL d   1       0.138   0.505  -1.107  0.00  0.00     0.002 C 
ATOM      5  C   UNL d   1      -1.024  -0.508  -1.118  0.00  0.00     0.001 C 
ATOM      6  C   UNL d   1      -1.946  -0.170  -2.301  0.00  0.00     0.047 C 
ATOM      7  C   UNL d   1      -3.307  -0.858  -2.234  0.00  0.00     0.200 C 
ATOM      8  C   UNL d   1      -3.986  -0.620  -0.915  0.00  0.00    -0.030 C 
ATOM      9  C   UNL d   1      -5.292  -0.897  -0.821  0.00  0.00     0.061 C 
ATOM     10  C   UNL d   1      -5.978  -0.811   0.471  0.00  0.00     0.172 C 
ATOM     11  O   UNL d   1      -7.226  -0.947   0.540  0.00  0.00    -0.289 OA
ATOM     12  C   UNL d   1      -5.180  -0.650   1.689  0.00  0.00     0.052 C 
ATOM     13  C   UNL d   1      -3.881  -0.359   1.596  0.00  0.00    -0.008 C 
ATOM     14  C   UNL d   1      -3.197  -0.069   0.272  0.00  0.00     0.006 C 
ATOM     15  C   UNL d   1      -1.781  -0.690   0.232  0.00  0.00     0.035 C 
ATOM     16  C   UNL d   1      -0.942  -0.483   1.503  0.00  0.00     0.124 C 
ATOM     17  C   UNL d   1       0.550  -0.424   1.210  0.00  0.00     0.045 C 
ATOM     18  C   UNL d   1       0.877   0.716   0.233  0.00  0.00     0.001 C 
ATOM     19  C   UNL d   1       2.383   0.758  -0.154  0.00  0.00     0.131 C 
ATOM     20  C   UNL d   1       0.434   2.043   0.853  0.00  0.00     0.019 C 
ATOM     21  C   UNL d   1      -3.104   1.446   0.140  0.00  0.00     0.025 C 
ATOM     22  F   UNL d   1      -3.159  -2.217  -2.451  0.00  0.00    -0.245 F 
ENDROOT
BRANCH  19  23
ATOM     23  C   UNL d   1       3.329   0.300   0.946  0.00  0.00     0.186 C 
ATOM     24  O   UNL d   1       3.401  -0.883   1.244  0.00  0.00    -0.292 OA
BRANCH  23  25
ATOM     25  C   UNL d   1       4.224   1.273   1.653  0.00  0.00     0.260 C 
BRANCH  25  26
ATOM     26  O   UNL d   1       5.351   1.589   0.843  0.00  0.00    -0.314 OA
BRANCH  26  27
ATOM     27  C   UNL d   1       6.432   0.720   0.687  0.00  0.00     0.255 C 
ATOM     28  O   UNL d   1       6.475  -0.379   1.302  0.00  0.00    -0.266 OA
ATOM     29  C   UNL d   1       7.551   1.099  -0.215  0.00  0.00     0.126 C 
ENDBRANCH  26  27
ENDBRANCH  25  26
ENDBRANCH  23  25
ENDBRANCH  19  23
BRANCH  19  30
ATOM     30  O   UNL d   1       2.731   2.059  -0.561  0.00  0.00    -0.381 OA
ATOM     31  HO  UNL d   1       2.683   2.636   0.192  1.00  0.00     0.211 HD
ENDBRANCH  19  30
BRANCH  16  32
ATOM     32  O   UNL d   1      -1.191  -1.516   2.405  0.00  0.00    -0.395 OA
ATOM     33  HO  UNL d   1      -0.673  -1.389   3.191  1.00  0.00     0.210 HD
ENDBRANCH  16  32
TORSDOF 6
