REMARK  Name = fda_7022
REMARK  1 active torsions:
REMARK  status: ('A' for Active; 'I' for Inactive)
REMARK    1  A    between atoms: N_15  and  C_16
REMARK                            x       y       z     vdW  Elec       q    Type
REMARK                         _______ _______ _______ _____ _____    ______ ____
ROOT
ATOM      1  C   UNL A   1       4.007  -2.286  -0.136  0.00  0.00    +0.026 C 
ATOM      2  C   UNL A   1       3.161  -1.040  -0.353  0.00  0.00    +0.096 C 
ATOM      3  N   UNL A   1       2.148  -0.922   0.708  0.00  0.00    -0.291 N 
ATOM      4  C   UNL A   1       2.491  -0.354   2.027  0.00  0.00    +0.097 C 
ATOM      5  C   UNL A   1       3.955   0.094   2.139  0.00  0.00    +0.048 C 
ATOM      6  C   UNL A   1       4.413   0.740   0.871  0.00  0.00    -0.023 A 
ATOM      7  C   UNL A   1       5.250   1.858   0.897  0.00  0.00    -0.004 A 
ATOM      8  C   UNL A   1       5.700   2.419  -0.303  0.00  0.00    -0.000 A 
ATOM      9  C   UNL A   1       5.322   1.856  -1.527  0.00  0.00    -0.000 A 
ATOM     10  C   UNL A   1       4.493   0.729  -1.554  0.00  0.00    -0.003 A 
ATOM     11  C   UNL A   1       4.039   0.171  -0.355  0.00  0.00    -0.008 A 
ATOM     12  C   UNL A   1       0.750  -1.027   0.377  0.00  0.00    +0.132 A 
ATOM     13  N   UNL A   1      -0.114  -0.107   0.888  0.00  0.00    -0.198 NA
ATOM     14  C   UNL A   1      -1.442  -0.134   0.611  0.00  0.00    +0.242 A 
ATOM     15  N   UNL A   1      -2.294   0.869   1.179  0.00  0.00    -0.178 NA
ATOM     16  N   UNL A   1      -1.938  -1.106  -0.197  0.00  0.00    -0.217 NA
ATOM     17  C   UNL A   1      -1.135  -2.059  -0.731  0.00  0.00    +0.061 A 
ATOM     18  C   UNL A   1      -1.749  -3.106  -1.599  0.00  0.00    +0.052 C 
ATOM     19  C   UNL A   1       0.242  -2.052  -0.453  0.00  0.00    +0.024 A 
ATOM     20  C   UNL A   1       1.116  -3.144  -0.983  0.00  0.00    +0.035 C 
ENDROOT
BRANCH  15  21
ATOM     21  C   UNL A   1      -3.711   1.010   1.007  0.00  0.00    +0.074 A 
ATOM     22  C   UNL A   1      -4.458   0.123   0.215  0.00  0.00    +0.019 A 
ATOM     23  C   UNL A   1      -5.838   0.294   0.072  0.00  0.00    +0.031 A 
ATOM     24  C   UNL A   1      -6.481   1.352   0.720  0.00  0.00    +0.140 A 
ATOM     25  F   UNL A   1      -7.819   1.518   0.582  0.00  0.00    -0.204 F 
ATOM     26  C   UNL A   1      -5.745   2.239   1.509  0.00  0.00    +0.031 A 
ATOM     27  C   UNL A   1      -4.364   2.067   1.651  0.00  0.00    +0.019 A 
ENDBRANCH  15  21
TORSDOF 1
