REMARK  10 active torsions:
REMARK  status: ('A' for Active; 'I' for Inactive)
REMARK    1  A    between atoms: C_2  and  O_3 
REMARK    2  A    between atoms: O_3  and  C_4 
REMARK    3  A    between atoms: C_4  and  C_6 
REMARK    4  A    between atoms: C_6  and  C_7 
REMARK    5  A    between atoms: C_6  and  N_29 
REMARK    6  A    between atoms: C_7  and  C_8 
REMARK    7  A    between atoms: C_8  and  C_9 
REMARK    8  A    between atoms: CA_15  and  C_17 
REMARK    9  A    between atoms: CA_15  and  N_29 
REMARK       I    between atoms: C_17  and  N_19 
REMARK   10  A    between atoms: CA_26  and  C_27 
ROOT
ATOM      1  N   UNL d   1      -0.772  -2.134  -1.280  0.00  0.00    -0.049 N 
ATOM      2  HN1 UNL d   1      -0.281  -2.340  -2.150  1.00  0.00     0.279 HD
ATOM      3  HN2 UNL d   1      -1.451  -2.894  -1.326  1.00  0.00     0.279 HD
ENDROOT
BRANCH   1   4
ATOM      4  C   UNL d   1      -1.395  -0.818  -1.278  0.00  0.00     0.286 C 
BRANCH   4   5
ATOM      5  C   UNL d   1      -0.836   0.015  -2.386  0.00  0.00     0.289 C 
ATOM      6  O   UNL d   1      -0.435   1.185  -2.137  0.00  0.00    -0.263 OA
BRANCH   5   7
ATOM      7  O   UNL d   1      -0.777  -0.499  -3.685  0.00  0.00    -0.320 OA
BRANCH   7   8
ATOM      8  C   UNL d   1      -0.196   0.222  -4.764  0.00  0.00     0.174 C 
ATOM      9  C   UNL d   1       1.317   0.187  -4.661  0.00  0.00     0.034 C 
ENDBRANCH   7   8
ENDBRANCH   5   7
ENDBRANCH   4   5
BRANCH   4  10
ATOM     10  C   UNL d   1      -2.906  -0.960  -1.403  0.00  0.00     0.048 C 
BRANCH  10  11
ATOM     11  C   UNL d   1      -3.620   0.345  -1.064  0.00  0.00     0.041 C 
BRANCH  11  12
ATOM     12  C   UNL d   1      -3.467   0.691   0.381  0.00  0.00    -0.058 A 
ATOM     13  C   UNL d   1      -4.258   0.055   1.346  0.00  0.00     0.007 A 
ATOM     14  C   UNL d   1      -4.098   0.369   2.700  0.00  0.00     0.001 A 
ATOM     15  C   UNL d   1      -3.146   1.316   3.091  0.00  0.00     0.000 A 
ATOM     16  C   UNL d   1      -2.352   1.948   2.129  0.00  0.00     0.001 A 
ATOM     17  C   UNL d   1      -2.511   1.634   0.775  0.00  0.00     0.007 A 
ENDBRANCH  11  12
ENDBRANCH  10  11
ENDBRANCH   4  10
ENDBRANCH   1   4
BRANCH   1  18
ATOM     18  CA  UNL d   1       0.090  -2.214  -0.109  0.00  0.00     0.274 C 
ATOM     19  CB  UNL d   1       0.252  -3.662   0.312  0.00  0.00     0.050 C 
BRANCH  18  20
ATOM     20  C   UNL d   1       1.425  -1.589  -0.396  0.00  0.00     0.251 C 
ATOM     21  O   UNL d   1       2.217  -2.151  -1.202  0.00  0.00    -0.271 OA
ATOM     22  N   UNL d   1       1.777  -0.328   0.195  0.00  0.00    -0.331 N 
ATOM     23  CA  UNL d   1       0.879   0.422   1.056  0.00  0.00     0.189 A 
ATOM     24  C   UNL d   1       2.930   0.442  -0.236  0.00  0.00     0.092 A 
ATOM     25  C   UNL d   1       1.431   1.837   1.114  0.00  0.00     0.043 A 
ATOM     26  C   UNL d   1       2.758   1.830   0.363  0.00  0.00     0.011 A 
ATOM     27  C   UNL d   1       3.902   2.031   1.339  0.00  0.00     0.007 C 
ATOM     28  C   UNL d   1       4.960   1.029   0.942  0.00  0.00     0.002 C 
ATOM     29  C   UNL d   1       4.200  -0.141   0.360  0.00  0.00     0.026 C 
BRANCH  23  30
ATOM     30  C   UNL d   1       0.850  -0.176   2.425  0.00  0.00     0.197 C 
ATOM     31  O   UNL d   1      -0.233  -0.613   2.892  0.00  0.00    -0.646 OA
ATOM     32  OXT UNL d   1       2.014  -0.274   3.179  0.00  0.00    -0.646 OA
ENDBRANCH  23  30
ENDBRANCH  18  20
ENDBRANCH   1  18
TORSDOF 10
