REMARK  9 active torsions:
REMARK  status: ('A' for Active; 'I' for Inactive)
REMARK    1  A    between atoms: O_2  and  C_3 
REMARK    2  A    between atoms: C_6  and  C_7 
REMARK    3  A    between atoms: C_7  and  C_8 
REMARK    4  A    between atoms: C_8  and  N_11 
REMARK    5  A    between atoms: N_11  and  C_14 
REMARK    6  A    between atoms: C_15  and  C_14 
REMARK    7  A    between atoms: C_15  and  O_16 
REMARK    8  A    between atoms: C_15  and  C_18 
REMARK    9  A    between atoms: C_20  and  O_21 
ROOT
ATOM      1  C   UNL d   1      -0.653  -1.144  -0.349  0.00  0.00     0.179 C 
ENDROOT
BRANCH   1   2
ATOM      2  C   UNL d   1       0.190  -0.608   0.794  0.00  0.00     0.269 C 
BRANCH   2   3
ATOM      3  N   UNL d   1       1.389  -1.428   0.964  0.00  0.00    -0.064 N 
ATOM      4  HN2 UNL d   1       1.907  -1.519   0.090  1.00  0.00     0.278 HD
ATOM      5  HN1 UNL d   1       1.153  -2.409   1.110  1.00  0.00     0.278 HD
BRANCH   3   6
ATOM      6  C   UNL d   1       2.239  -0.912   2.044  0.00  0.00     0.122 C 
ATOM      7  C   UNL d   1       3.450  -1.816   2.180  0.00  0.00     0.046 C 
ATOM      8  C   UNL d   1       1.500  -0.961   3.372  0.00  0.00     0.046 C 
BRANCH   6   9
ATOM      9  C   UNL d   1       2.693   0.538   1.785  0.00  0.00     0.076 C 
BRANCH   9  10
ATOM     10  C   UNL d   1       3.453   0.721   0.505  0.00  0.00    -0.056 A 
ATOM     11  C   UNL d   1       4.851   0.654   0.505  0.00  0.00     0.010 A 
ATOM     12  C   UNL d   1       5.563   0.833  -0.684  0.00  0.00     0.037 A 
ATOM     13  C   UNL d   1       4.885   1.078  -1.883  0.00  0.00     0.068 A 
ATOM     14  C   UNL d   1       3.482   1.145  -1.881  0.00  0.00     0.037 A 
ATOM     15  C   UNL d   1       2.771   0.967  -0.692  0.00  0.00     0.010 A 
BRANCH  13  16
ATOM     16  O   UNL d   1       5.625   1.254  -3.056  0.00  0.00    -0.356 OA
ATOM     17  C   UNL d   1       5.019   1.532  -4.312  0.00  0.00     0.210 C 
ENDBRANCH  13  16
ENDBRANCH   9  10
ENDBRANCH   6   9
ENDBRANCH   3   6
ENDBRANCH   2   3
ENDBRANCH   1   2
BRANCH   1  18
ATOM     18  O   UNL d   1       0.053  -1.063  -1.552  0.00  0.00    -0.389 OA
ATOM     19  HO  UNL d   1      -0.475  -1.398  -2.268  1.00  0.00     0.210 HD
ENDBRANCH   1  18
BRANCH   1  20
ATOM     20  C   UNL d   1      -1.942  -0.382  -0.439  0.00  0.00     0.010 A 
ATOM     21  C   UNL d   1      -1.995   0.846  -1.116  0.00  0.00     0.049 A 
ATOM     22  C   UNL d   1      -3.185   1.575  -1.167  0.00  0.00     0.068 A 
ATOM     23  C   UNL d   1      -4.329   1.092  -0.530  0.00  0.00     0.069 A 
ATOM     24  C   UNL d   1      -4.283  -0.122   0.158  0.00  0.00     0.071 A 
ATOM     25  N   UNL d   1      -5.430  -0.587   0.864  0.00  0.00    -0.323 N 
ATOM     26  C   UNL d   1      -3.091  -0.862   0.210  0.00  0.00     0.105 A 
ATOM     27  C   UNL d   1      -5.391  -1.840   1.550  0.00  0.00     0.246 C 
ATOM     28  HN  UNL d   1      -6.281  -0.025   0.880  1.00  0.00     0.169 HD
ATOM     29  O   UNL d   1      -6.364  -2.195   2.264  0.00  0.00    -0.271 OA
ATOM     30  C   UNL d   1      -4.221  -2.761   1.369  0.00  0.00     0.278 C 
ATOM     31  O   UNL d   1      -3.049  -2.060   0.939  0.00  0.00    -0.339 OA
BRANCH  22  32
ATOM     32  O   UNL d   1      -3.227   2.785  -1.841  0.00  0.00    -0.361 OA
ATOM     33  HO  UNL d   1      -4.037   3.281  -1.876  1.00  0.00     0.217 HD
ENDBRANCH  22  32
ENDBRANCH   1  20
TORSDOF 9
