REMARK  7 active torsions:
REMARK  status: ('A' for Active; 'I' for Inactive)
REMARK    1  A    between atoms: C_1  and  O_2 
REMARK    2  A    between atoms: C_1  and  C_5 
REMARK    3  A    between atoms: C_6  and  C_21 
REMARK    4  A    between atoms: C_7  and  C_8 
REMARK    5  A    between atoms: C_8  and  O_9 
REMARK    6  A    between atoms: O_9  and  C_10 
REMARK    7  A    between atoms: C_23  and  N_24 
ROOT
ATOM      1  C   UNL d   1      -0.660   1.763  -0.291  0.00  0.00     0.068 C 
ATOM      2  C   UNL d   1      -0.705   0.416   0.405  0.00  0.00     0.102 C 
ATOM      3  C   UNL d   1      -1.291  -0.711  -0.426  0.00  0.00     0.052 C 
ATOM      4  C   UNL d   1      -1.214  -0.631  -1.773  0.00  0.00     0.019 C 
ATOM      5  C   UNL d   1      -1.610  -1.747  -2.681  0.00  0.00     0.069 C 
ATOM      6  N   UNL d   1      -0.772   0.584  -2.385  0.00  0.00    -0.350 N 
ATOM      7  HN  UNL d   1      -0.579   0.588  -3.386  1.00  0.00     0.166 HD
ATOM      8  C   UNL d   1      -0.592   1.793  -1.642  0.00  0.00     0.127 C 
ATOM      9  C   UNL d   1      -0.374   3.003  -2.395  0.00  0.00     0.118 C 
ATOM     10  N   UNL d   1      -0.199   3.971  -3.004  0.00  0.00    -0.190 NA
ENDROOT
BRANCH   1  11
ATOM     11  C   UNL d   1      -0.612   2.978   0.570  0.00  0.00     0.292 C 
ATOM     12  O   UNL d   1      -0.578   2.843   1.824  0.00  0.00    -0.259 OA
BRANCH  11  13
ATOM     13  O   UNL d   1      -0.629   4.261   0.017  0.00  0.00    -0.323 OA
ATOM     14  C   UNL d   1      -0.590   5.428   0.823  0.00  0.00     0.213 C 
ENDBRANCH  11  13
ENDBRANCH   1  11
BRANCH   2  15
ATOM     15  C   UNL d   1       0.649   0.040   0.938  0.00  0.00    -0.042 A 
ATOM     16  C   UNL d   1       1.732  -0.181   0.074  0.00  0.00     0.044 A 
ATOM     17  C   UNL d   1       2.991  -0.533   0.583  0.00  0.00     0.103 A 
ATOM     18  C   UNL d   1       3.156  -0.663   1.969  0.00  0.00     0.036 A 
ATOM     19  C   UNL d   1       2.079  -0.445   2.833  0.00  0.00     0.003 A 
ATOM     20  C   UNL d   1       0.829  -0.095   2.318  0.00  0.00     0.008 A 
BRANCH  17  21
ATOM     21  N   UNL d   1       4.098  -0.758  -0.300  0.00  0.00    -0.116 N 
ATOM     22  O   UNL d   1       5.330  -1.104   0.205  0.00  0.00    -0.532 OA
ATOM     23  O   UNL d   1       3.956  -0.643  -1.536  0.00  0.00    -0.532 OA
ENDBRANCH  17  21
ENDBRANCH   2  15
BRANCH   3  24
ATOM     24  C   UNL d   1      -1.843  -1.885   0.303  0.00  0.00     0.292 C 
ATOM     25  O   UNL d   1      -1.838  -1.882   1.565  0.00  0.00    -0.259 OA
BRANCH  24  26
ATOM     26  O   UNL d   1      -2.380  -2.982  -0.387  0.00  0.00    -0.313 OA
BRANCH  26  27
ATOM     27  C   UNL d   1      -2.925  -4.145   0.240  0.00  0.00     0.124 C 
ATOM     28  C   UNL d   1      -1.876  -4.874   1.061  0.00  0.00     0.040 C 
ATOM     29  C   UNL d   1      -4.133  -3.800   1.092  0.00  0.00     0.040 C 
ENDBRANCH  26  27
ENDBRANCH  24  26
ENDBRANCH   3  24
TORSDOF 7
