REMARK  5 active torsions:
REMARK  status: ('A' for Active; 'I' for Inactive)
REMARK    1  A    between atoms: C_13  and  O_27 
REMARK    2  A    between atoms: C_15  and  C_25 
REMARK    3  A    between atoms: C_19  and  C_20 
REMARK    4  A    between atoms: C_20  and  C_22 
REMARK    5  A    between atoms: C_22  and  O_23 
ROOT
ATOM      1  C   UNL d   1      -2.972   1.614  -1.008  0.00  0.00     0.020 C 
ATOM      2  C   UNL d   1      -2.072   0.639  -0.258  0.00  0.00    -0.014 C 
ATOM      3  C   UNL d   1      -1.276   1.405   0.817  0.00  0.00     0.022 C 
ATOM      4  C   UNL d   1      -2.201   2.022   1.873  0.00  0.00     0.084 C 
ATOM      5  C   UNL d   1      -3.171   1.005   2.397  0.00  0.00     0.149 C 
ATOM      6  O   UNL d   1      -3.747   1.203   3.498  0.00  0.00    -0.293 OA
ATOM      7  C   UNL d   1      -3.462  -0.217   1.631  0.00  0.00     0.053 C 
ATOM      8  C   UNL d   1      -2.947  -0.406   0.412  0.00  0.00    -0.068 C 
ATOM      9  C   UNL d   1      -3.077  -1.746  -0.224  0.00  0.00     0.035 C 
ATOM     10  C   UNL d   1      -1.688  -2.373  -0.305  0.00  0.00     0.010 C 
ATOM     11  C   UNL d   1      -0.619  -1.447  -0.920  0.00  0.00    -0.002 C 
ATOM     12  C   UNL d   1      -1.138  -0.032  -1.302  0.00  0.00     0.031 C 
ATOM     13  C   UNL d   1      -0.031   0.902  -1.848  0.00  0.00     0.124 C 
ATOM     14  C   UNL d   1       1.264   0.885  -1.005  0.00  0.00     0.050 C 
ATOM     15  C   UNL d   1       1.723  -0.544  -0.662  0.00  0.00     0.029 C 
ATOM     16  C   UNL d   1       0.578  -1.274   0.010  0.00  0.00     0.006 C 
ATOM     17  C   UNL d   1       1.198  -2.496   0.650  0.00  0.00     0.007 C 
ATOM     18  C   UNL d   1       2.575  -2.006   1.099  0.00  0.00     0.014 C 
ATOM     19  C   UNL d   1       2.837  -0.670   0.386  0.00  0.00     0.073 C 
ENDROOT
BRANCH  19  20
ATOM     20  C   UNL d   1       2.872   0.453   1.389  0.00  0.00     0.155 C 
ATOM     21  O   UNL d   1       1.921   0.663   2.128  0.00  0.00    -0.295 OA
BRANCH  20  22
ATOM     22  C   UNL d   1       4.091   1.306   1.487  0.00  0.00     0.242 C 
BRANCH  22  23
ATOM     23  O   UNL d   1       3.777   2.620   1.140  0.00  0.00    -0.394 OA
ATOM     24  HO  UNL d   1       4.554   3.164   1.202  1.00  0.00     0.209 HD
ENDBRANCH  22  23
ENDBRANCH  20  22
ENDBRANCH  19  20
BRANCH  15  25
ATOM     25  C   UNL d   1       2.182  -1.253  -1.917  0.00  0.00     0.242 C 
ATOM     26  O   UNL d   1       3.135  -0.840  -2.560  0.00  0.00    -0.306 OA
ENDBRANCH  15  25
BRANCH  13  27
ATOM     27  O   UNL d   1       0.247   0.587  -3.179  0.00  0.00    -0.395 OA
ATOM     28  HO  UNL d   1       0.927   1.160  -3.514  1.00  0.00     0.210 HD
ENDBRANCH  13  27
TORSDOF 5
