REMARK  8 active torsions:
REMARK  status: ('A' for Active; 'I' for Inactive)
REMARK    1  A    between atoms: S_1  and  N_4 
REMARK    2  A    between atoms: S_1  and  C_17 
REMARK    3  A    between atoms: C_6  and  C_7 
REMARK    4  A    between atoms: C_7  and  C_8 
REMARK    5  A    between atoms: C_8  and  C_9 
REMARK       I    between atoms: C_9  and  N_10 
REMARK    6  A    between atoms: N_10  and  O_12 
REMARK    7  A    between atoms: C_20  and  C_21 
REMARK    8  A    between atoms: C_21  and  N_22 
ROOT
ATOM      1  N   UNL d   1       0.908  -0.938  -1.586  0.00  0.00    -0.257 N 
ATOM      2  C   UNL d   1       1.427   0.127  -0.957  0.00  0.00     0.120 A 
ATOM      3  C   UNL d   1       2.481  -0.319  -0.192  0.00  0.00    -0.018 A 
ATOM      4  C   UNL d   1       2.603  -1.690  -0.358  0.00  0.00     0.031 A 
ATOM      5  C   UNL d   1       1.596  -2.041  -1.240  0.00  0.00     0.109 A 
ENDROOT
BRANCH   1   6
ATOM      6  S   UNL d   1      -0.452  -0.899  -2.654  0.00  0.00     0.268 S 
ATOM      7  O   UNL d   1      -0.289   0.244  -3.616  0.00  0.00    -0.200 OA
ATOM      8  O   UNL d   1      -0.525  -2.181  -3.435  0.00  0.00    -0.200 OA
BRANCH   6   9
ATOM      9  C   UNL d   1      -1.922  -0.701  -1.720  0.00  0.00     0.080 A 
ATOM     10  C   UNL d   1      -2.783   0.372  -1.974  0.00  0.00     0.026 A 
ATOM     11  C   UNL d   1      -3.951   0.527  -1.222  0.00  0.00     0.010 A 
ATOM     12  C   UNL d   1      -4.261  -0.389  -0.209  0.00  0.00    -0.030 A 
ATOM     13  C   UNL d   1      -3.402  -1.465   0.041  0.00  0.00     0.010 A 
ATOM     14  C   UNL d   1      -2.234  -1.620  -0.712  0.00  0.00     0.026 A 
BRANCH  12  15
ATOM     15  C   UNL d   1      -5.523  -0.226   0.596  0.00  0.00     0.309 C 
BRANCH  15  16
ATOM     16  N   UNL d   1      -5.368   0.579   1.816  0.00  0.00     0.084 N 
ATOM     17  C   UNL d   1      -4.391  -0.030   2.708  0.00  0.00     0.309 C 
ATOM     18  C   UNL d   1      -4.912   1.921   1.486  0.00  0.00     0.309 C 
ENDBRANCH  15  16
ENDBRANCH  12  15
ENDBRANCH   6   9
ENDBRANCH   1   6
BRANCH   3  19
ATOM     19  C   UNL d   1       3.318   0.540   0.652  0.00  0.00     0.018 C 
BRANCH  19  20
ATOM     20  C   UNL d   1       4.324   0.052   1.371  0.00  0.00     0.077 C 
BRANCH  20  21
ATOM     21  C   UNL d   1       5.162   0.911   2.214  0.00  0.00     0.264 C 
ATOM     22  N   UNL d   1       6.226   0.327   2.960  0.00  0.00    -0.234 N 
ATOM     23  HN  UNL d   1       6.391  -0.678   2.900  1.00  0.00     0.197 HD
ATOM     24  O   UNL d   1       4.949   2.152   2.281  0.00  0.00    -0.266 OA
BRANCH  22  25
ATOM     25  O   UNL d   1       7.021   1.088   3.749  0.00  0.00    -0.287 OA
ATOM     26  HO  UNL d   1       7.730   0.698   4.246  1.00  0.00     0.244 HD
ENDBRANCH  22  25
ENDBRANCH  20  21
ENDBRANCH  19  20
ENDBRANCH   3  19
TORSDOF 8
