REMARK  11 active torsions:
REMARK  status: ('A' for Active; 'I' for Inactive)
REMARK    1  A    between atoms: C_6  and  O_10 
REMARK    2  A    between atoms: C_7  and  C_8 
REMARK    3  A    between atoms: C_16  and  O_39 
REMARK    4  A    between atoms: C_24  and  C_17 
REMARK    5  A    between atoms: C_18  and  O_22 
REMARK    6  A    between atoms: C_19  and  O_20 
REMARK    7  A    between atoms: C_25  and  O_37 
REMARK    8  A    between atoms: C_26  and  O_35 
REMARK    9  A    between atoms: C_27  and  O_33 
REMARK   10  A    between atoms: C_28  and  C_30 
REMARK   11  A    between atoms: C_30  and  O_31 
ROOT
ATOM      1  C   UNL d   1       3.526   2.584   1.560  0.00  0.00     0.050 C 
ATOM      2  C   UNL d   1       3.892   1.347   0.794  0.00  0.00    -0.027 A 
ATOM      3  C   UNL d   1       2.878   0.463   0.321  0.00  0.00     0.036 A 
ATOM      4  C   UNL d   1       3.246  -0.625  -0.493  0.00  0.00     0.032 A 
ATOM      5  C   UNL d   1       4.589  -0.846  -0.800  0.00  0.00     0.054 A 
ATOM      6  C   UNL d   1       5.585  -0.005  -0.322  0.00  0.00     0.084 A 
ATOM      7  C   UNL d   1       5.256   1.104   0.478  0.00  0.00     0.080 A 
ATOM      8  C   UNL d   1       2.230  -1.544  -1.042  0.00  0.00     0.197 C 
ATOM      9  O   UNL d   1       2.606  -2.557  -1.694  0.00  0.00    -0.286 OA
ATOM     10  C   UNL d   1       0.783  -1.276  -0.836  0.00  0.00     0.068 A 
ATOM     11  C   UNL d   1       0.390  -0.197  -0.010  0.00  0.00     0.066 A 
ATOM     12  C   UNL d   1      -0.989   0.069   0.175  0.00  0.00     0.092 A 
ATOM     13  C   UNL d   1      -1.960  -0.736  -0.448  0.00  0.00     0.043 A 
ATOM     14  C   UNL d   1      -1.561  -1.808  -1.252  0.00  0.00     0.111 A 
ATOM     15  C   UNL d   1      -0.205  -2.077  -1.451  0.00  0.00     0.115 A 
ATOM     16  C   UNL d   1       1.432   0.634   0.659  0.00  0.00     0.197 C 
ATOM     17  O   UNL d   1       1.087   1.459   1.548  0.00  0.00    -0.286 OA
ENDROOT
BRANCH  13  18
ATOM     18  C   UNL d   1      -3.435  -0.486  -0.254  0.00  0.00     0.192 C 
ATOM     19  O   UNL d   1      -3.776   0.866  -0.438  0.00  0.00    -0.368 OA
ATOM     20  C   UNL d   1      -5.135   0.876  -0.806  0.00  0.00     0.177 C 
ATOM     21  C   UNL d   1      -6.050   0.329   0.311  0.00  0.00     0.180 C 
ATOM     22  C   UNL d   1      -5.239  -0.217   1.497  0.00  0.00     0.181 C 
ATOM     23  C   UNL d   1      -4.030  -1.050   1.056  0.00  0.00     0.183 C 
BRANCH  20  24
ATOM     24  C   UNL d   1      -5.547   2.289  -1.178  0.00  0.00     0.198 C 
BRANCH  24  25
ATOM     25  O   UNL d   1      -6.786   2.273  -1.819  0.00  0.00    -0.398 OA
ATOM     26  HO  UNL d   1      -7.044   3.157  -2.051  1.00  0.00     0.209 HD
ENDBRANCH  24  25
ENDBRANCH  20  24
BRANCH  21  27
ATOM     27  O   UNL d   1      -6.870  -0.669  -0.221  0.00  0.00    -0.390 OA
ATOM     28  HO  UNL d   1      -7.372  -0.331  -0.954  1.00  0.00     0.210 HD
ENDBRANCH  21  27
BRANCH  22  29
ATOM     29  O   UNL d   1      -6.050  -0.953   2.363  0.00  0.00    -0.390 OA
ATOM     30  HO  UNL d   1      -6.799  -0.436   2.636  1.00  0.00     0.210 HD
ENDBRANCH  22  29
BRANCH  23  31
ATOM     31  O   UNL d   1      -3.089  -1.065   2.088  0.00  0.00    -0.390 OA
ATOM     32  HO  UNL d   1      -3.454  -1.412   2.894  1.00  0.00     0.210 HD
ENDBRANCH  23  31
ENDBRANCH  13  18
BRANCH  12  33
ATOM     33  O   UNL d   1      -1.403   1.133   0.972  0.00  0.00    -0.359 OA
ATOM     34  HO  UNL d   1      -2.328   1.311   1.096  1.00  0.00     0.217 HD
ENDBRANCH  12  33
BRANCH  14  35
ATOM     35  O   UNL d   1      -2.516  -2.615  -1.865  0.00  0.00    -0.357 OA
ATOM     36  HO  UNL d   1      -2.244  -3.343  -2.411  1.00  0.00     0.217 HD
ENDBRANCH  14  35
BRANCH  15  37
ATOM     37  O   UNL d   1       0.145  -3.147  -2.270  0.00  0.00    -0.357 OA
ATOM     38  HO  UNL d   1      -0.519  -3.686  -2.684  1.00  0.00     0.217 HD
ENDBRANCH  15  37
BRANCH   7  39
ATOM     39  C   UNL d   1       6.345   1.991   0.971  0.00  0.00     0.212 C 
ATOM     40  O   UNL d   1       6.252   2.566   2.088  0.00  0.00    -0.644 OA
ATOM     41  O   UNL d   1       7.493   2.184   0.212  0.00  0.00    -0.644 OA
ENDBRANCH   7  39
BRANCH   6  42
ATOM     42  O   UNL d   1       6.906  -0.296  -0.643  0.00  0.00    -0.360 OA
ATOM     43  HO  UNL d   1       7.588   0.279  -0.316  1.00  0.00     0.217 HD
ENDBRANCH   6  42
TORSDOF 11
