REMARK  1 active torsions:
REMARK  status: ('A' for Active; 'I' for Inactive)
REMARK    1  A    between atoms: C_2  and  C_3 
ROOT
ATOM      1  C   UNL d   1      -0.762   0.349   0.502  0.00  0.00     0.228 C 
ATOM      2  C   UNL d   1       0.009   1.281  -0.391  0.00  0.00     0.282 C 
ATOM      3  O   UNL d   1       1.311   0.973  -0.800  0.00  0.00    -0.283 OA
ATOM      4  O   UNL d   1      -0.531   2.343  -0.797  0.00  0.00    -0.264 OA
ATOM      5  C   UNL d   1       0.136  -0.671   1.148  0.00  0.00     0.172 C 
ATOM      6  C   UNL d   1       1.491  -0.915   0.639  0.00  0.00     0.084 C 
ATOM      7  C   UNL d   1       2.017  -0.128  -0.297  0.00  0.00     0.056 C 
ATOM      8  C   UNL d   1       3.385  -0.410  -0.803  0.00  0.00     0.077 C 
ATOM      9  O   UNL d   1      -0.289  -1.347   2.121  0.00  0.00    -0.292 OA
ENDROOT
BRANCH   1  10
ATOM     10  C   UNL d   1      -1.867  -0.323  -0.260  0.00  0.00     0.144 C 
ATOM     11  C   UNL d   1      -3.282  -0.100   0.147  0.00  0.00     0.092 C 
ATOM     12  O   UNL d   1      -1.618  -1.051  -1.209  0.00  0.00    -0.297 OA
ENDBRANCH   1  10
TORSDOF 1
