REMARK  6 active torsions:
REMARK  status: ('A' for Active; 'I' for Inactive)
REMARK    1  A    between atoms: C_11  and  N_4 
REMARK    2  A    between atoms: C_13  and  N_19 
REMARK    3  A    between atoms: C_14  and  C_16 
REMARK    4  A    between atoms: C_16  and  O_17 
REMARK    5  A    between atoms: N_19  and  N_21 
REMARK    6  A    between atoms: N_21  and  N_22 
ROOT
ATOM      1  C   UNL d   1      -0.324  -0.359  -0.489  0.00  0.00     0.234 C 
ATOM      2  C   UNL d   1      -1.036  -0.906   0.733  0.00  0.00     0.084 C 
ATOM      3  C   UNL d   1      -2.418  -0.350   0.596  0.00  0.00     0.149 C 
ATOM      4  C   UNL d   1      -2.151   0.929  -0.182  0.00  0.00     0.172 C 
ATOM      5  O   UNL d   1      -1.027   0.748  -1.008  0.00  0.00    -0.357 OA
ENDROOT
BRANCH   1   6
ATOM      6  N   UNL d   1       1.067  -0.011  -0.195  0.00  0.00    -0.282 N 
ATOM      7  C   UNL d   1       2.034  -0.744  -0.810  0.00  0.00     0.110 A 
ATOM      8  C   UNL d   1       3.381  -0.475  -0.583  0.00  0.00     0.022 A 
ATOM      9  C   UNL d   1       4.424  -1.291  -1.267  0.00  0.00     0.056 C 
ATOM     10  C   UNL d   1       3.713   0.565   0.291  0.00  0.00     0.256 A 
ATOM     11  N   UNL d   1       2.726   1.278   0.890  0.00  0.00    -0.275 N 
ATOM     12  O   UNL d   1       4.918   0.846   0.528  0.00  0.00    -0.267 OA
ATOM     13  C   UNL d   1       1.415   1.004   0.659  0.00  0.00     0.331 A 
ATOM     14  HN  UNL d   1       2.973   2.036   1.527  1.00  0.00     0.173 HD
ATOM     15  O   UNL d   1       0.533   1.692   1.239  0.00  0.00    -0.246 OA
ENDBRANCH   1   6
BRANCH   4  16
ATOM     16  C   UNL d   1      -3.350   1.422  -0.981  0.00  0.00     0.198 C 
BRANCH  16  17
ATOM     17  O   UNL d   1      -3.080   2.684  -1.509  0.00  0.00    -0.398 OA
ATOM     18  HO  UNL d   1      -3.828   2.992  -2.007  1.00  0.00     0.209 HD
ENDBRANCH  16  17
ENDBRANCH   4  16
BRANCH   3  19
ATOM     19  N   UNL d   1      -3.242  -1.276  -0.174  0.00  0.00    -0.245 N 
ATOM     20  HN  UNL d   1      -3.517  -1.036  -1.126  1.00  0.00     0.197 HD
BRANCH  19  21
ATOM     21  N   UNL d   1      -3.608  -2.345   0.315  0.00  0.00    -0.248 NA
BRANCH  21  22
ATOM     22  N   UNL d   1      -3.973  -3.413   0.804  0.00  0.00    -0.261 N 
ATOM     23  HN2 UNL d   1      -3.670  -2.535   0.382  1.00  0.00     0.193 HD
ATOM     24  HN1 UNL d   1      -4.276  -4.299   1.209  1.00  0.00     0.193 HD
ENDBRANCH  21  22
ENDBRANCH  19  21
ENDBRANCH   3  19
TORSDOF 6
