REMARK  5 active torsions:
REMARK  status: ('A' for Active; 'I' for Inactive)
REMARK    1  A    between atoms: CZ_3  and  OH_16 
REMARK    2  A    between atoms: CG_6  and  CB_7 
REMARK    3  A    between atoms: CA_8  and  CB_7 
REMARK    4  A    between atoms: CA_8  and  C_9 
REMARK    5  A    between atoms: CA_8  and  N_12 
ROOT
ATOM      1  CB  TYR d   1      -1.154  -0.076   1.258  0.00  0.00     0.082 C 
ENDROOT
BRANCH   1   2
ATOM      2  CG  TYR d   1       0.249  -0.144   0.752  0.00  0.00    -0.056 A 
ATOM      3  CD1 TYR d   1       0.612  -1.130  -0.173  0.00  0.00     0.010 A 
ATOM      4  CE1 TYR d   1       1.921  -1.185  -0.660  0.00  0.00     0.037 A 
ATOM      5  CZ  TYR d   1       2.869  -0.253  -0.225  0.00  0.00     0.065 A 
ATOM      6  CE2 TYR d   1       2.507   0.735   0.696  0.00  0.00     0.037 A 
ATOM      7  CD2 TYR d   1       1.197   0.791   1.183  0.00  0.00     0.010 A 
BRANCH   5   8
ATOM      8  OH  TYR d   1       4.169  -0.308  -0.708  0.00  0.00    -0.361 OA
ATOM      9  HH  TYR d   1       4.415  -0.979  -1.334  1.00  0.00     0.217 HD
ENDBRANCH   5   8
ENDBRANCH   1   2
BRANCH   1  10
ATOM     10  CA  TYR d   1      -1.965   0.965   0.496  0.00  0.00     0.287 C 
BRANCH  10  11
ATOM     11  C   TYR d   1      -2.331   0.474  -0.868  0.00  0.00     0.204 C 
ATOM     12  O   TYR d   1      -3.099  -0.514  -1.009  0.00  0.00    -0.646 OA
ATOM     13  OXT TYR d   1      -1.808   1.105  -1.988  0.00  0.00    -0.646 OA
ENDBRANCH  10  11
BRANCH  10  14
ATOM     14  N   TYR d   1      -3.167   1.287   1.244  0.00  0.00    -0.065 N 
ATOM     15  HN3 TYR d   1      -3.717   0.457   1.465  1.00  0.00     0.275 HD
ATOM     16  HN2 TYR d   1      -2.960   1.583   2.198  1.00  0.00     0.275 HD
ATOM     17  HN1 TYR d   1      -3.710   1.984   0.735  1.00  0.00     0.275 HD
ENDBRANCH  10  14
ENDBRANCH   1  10
TORSDOF 5
