REMARK  4 active torsions:
REMARK  status: ('A' for Active; 'I' for Inactive)
REMARK    1  A    between atoms: CG_7  and  CB_11 
REMARK    2  A    between atoms: CB_11  and  CA_12 
REMARK    3  A    between atoms: CA_12  and  C_13 
REMARK    4  A    between atoms: CA_12  and  N_16 
ROOT
ATOM      1  CZ3 TRP d   1      -1.971   2.205  -0.117  0.00  0.00     0.001 A 
ATOM      2  CH2 TRP d   1      -2.865   1.633  -1.049  0.00  0.00     0.002 A 
ATOM      3  CZ2 TRP d   1      -2.786   0.265  -1.370  0.00  0.00     0.030 A 
ATOM      4  CE2 TRP d   1      -1.802  -0.492  -0.738  0.00  0.00     0.042 A 
ATOM      5  CD2 TRP d   1      -0.938   0.066   0.165  0.00  0.00    -0.002 A 
ATOM      6  CE3 TRP d   1      -0.987   1.416   0.505  0.00  0.00     0.014 A 
ATOM      7  CG  TRP d   1      -0.111  -0.945   0.585  0.00  0.00    -0.028 A 
ATOM      8  CD1 TRP d   1      -0.513  -2.088  -0.096  0.00  0.00     0.096 A 
ATOM      9  NE1 TRP d   1      -1.561  -1.804  -0.911  0.00  0.00    -0.365 N 
ATOM     10  HE1 TRP d   1      -2.060  -2.449  -1.524  1.00  0.00     0.165 HD
ENDROOT
BRANCH   7  11
ATOM     11  CB  TRP d   1       1.029  -0.836   1.552  0.00  0.00     0.085 C 
BRANCH  11  12
ATOM     12  CA  TRP d   1       2.386  -0.651   0.869  0.00  0.00     0.287 C 
BRANCH  12  13
ATOM     13  C   TRP d   1       2.473   0.635   0.110  0.00  0.00     0.204 C 
ATOM     14  O   TRP d   1       2.927   1.663   0.676  0.00  0.00    -0.646 OA
ATOM     15  OXT TRP d   1       2.018   0.715  -1.201  0.00  0.00    -0.646 OA
ENDBRANCH  12  13
BRANCH  12  16
ATOM     16  N   TRP d   1       2.701  -1.782   0.011  0.00  0.00    -0.065 N 
ATOM     17  HN3 TRP d   1       2.656  -2.664   0.521  1.00  0.00     0.275 HD
ATOM     18  HN2 TRP d   1       1.960  -1.956  -0.668  1.00  0.00     0.275 HD
ATOM     19  HN1 TRP d   1       3.606  -1.658  -0.444  1.00  0.00     0.275 HD
ENDBRANCH  12  16
ENDBRANCH  11  12
ENDBRANCH   7  11
TORSDOF 4
