REMARK  Name = fda_5668
REMARK  1 active torsions:
REMARK  status: ('A' for Active; 'I' for Inactive)
REMARK    1  A    between atoms: C_3  and  C_7
REMARK                            x       y       z     vdW  Elec       q    Type
REMARK                         _______ _______ _______ _____ _____    ______ ____
ROOT
ATOM      1  C   UNL A   1      -1.669  -1.135  -0.787  0.00  0.00    +0.021 A 
ATOM      2  C   UNL A   1      -0.281  -1.012  -0.705  0.00  0.00    +0.010 A 
ATOM      3  C   UNL A   1       0.290   0.036   0.025  0.00  0.00    +0.099 A 
ATOM      4  C   UNL A   1      -0.558   0.951   0.664  0.00  0.00    +0.105 A 
ATOM      5  N   UNL A   1      -1.908   0.814   0.572  0.00  0.00    -0.242 NA
ATOM      6  C   UNL A   1      -2.475  -0.200  -0.134  0.00  0.00    +0.099 A 
ENDROOT
BRANCH   3   7
ATOM      7  C   UNL A   1       1.752   0.172   0.116  0.00  0.00    +0.389 C 
ATOM      8  O   UNL A   1       2.266   1.116   0.773  0.00  0.00    -0.240 OA
ATOM      9  O   UNL A   1       2.582  -0.742  -0.523  0.00  0.00    -0.240 OA
ENDBRANCH   3   7
TORSDOF 1
