REMARK  20 active torsions:
REMARK  status: ('A' for Active; 'I' for Inactive)
REMARK    1  A    between atoms: C_2  and  C_3 
REMARK    2  A    between atoms: C_3  and  C_4 
REMARK    3  A    between atoms: C_4  and  C_5 
REMARK    4  A    between atoms: C_5  and  C_6 
REMARK    5  A    between atoms: C_6  and  C_7 
REMARK    6  A    between atoms: C_7  and  C_8 
REMARK    7  A    between atoms: C_8  and  C_9 
REMARK    8  A    between atoms: C_9  and  C_10 
REMARK    9  A    between atoms: C_10  and  C_11 
REMARK   10  A    between atoms: C_11  and  C_12 
REMARK   11  A    between atoms: C_12  and  O_14 
REMARK   12  A    between atoms: O_14  and  C_15 
REMARK   13  A    between atoms: C_15  and  N_16 
REMARK   14  A    between atoms: C_24  and  O_25 
REMARK   15  A    between atoms: O_25  and  C_26 
REMARK   16  A    between atoms: C_26  and  C_27 
REMARK   17  A    between atoms: C_27  and  C_28 
REMARK   18  A    between atoms: C_28  and  C_29 
REMARK   19  A    between atoms: C_29  and  N_30 
REMARK   20  A    between atoms: N_33  and  C_36 
ROOT
ATOM      1  N   UNL d   1      -3.647  -3.556  -0.586  0.00  0.00    -0.295 N 
ATOM      2  C   UNL d   1      -4.055  -4.862  -0.140  0.00  0.00     0.226 C 
ATOM      3  O   UNL d   1      -5.196  -5.044   0.362  0.00  0.00    -0.273 OA
ATOM      4  C   UNL d   1      -3.095  -6.006  -0.219  0.00  0.00     0.108 C 
ATOM      5  C   UNL d   1      -2.275  -5.926  -1.503  0.00  0.00     0.050 C 
ATOM      6  C   UNL d   1      -1.688  -4.559  -1.698  0.00  0.00    -0.030 A 
ATOM      7  C   UNL d   1      -0.473  -4.427  -2.377  0.00  0.00     0.012 A 
ATOM      8  C   UNL d   1       0.050  -3.158  -2.638  0.00  0.00     0.037 A 
ATOM      9  C   UNL d   1      -0.647  -2.008  -2.237  0.00  0.00     0.070 A 
ATOM     10  C   UNL d   1      -1.869  -2.143  -1.572  0.00  0.00     0.067 A 
ATOM     11  C   UNL d   1      -2.400  -3.412  -1.295  0.00  0.00     0.048 A 
ENDROOT
BRANCH   9  12
ATOM     12  O   UNL d   1      -0.150  -0.726  -2.482  0.00  0.00    -0.351 OA
BRANCH  12  13
ATOM     13  C   UNL d   1       1.100  -0.496  -3.119  0.00  0.00     0.175 C 
BRANCH  13  14
ATOM     14  C   UNL d   1       1.377   0.997  -3.194  0.00  0.00     0.028 C 
BRANCH  14  15
ATOM     15  C   UNL d   1       1.565   1.591  -1.807  0.00  0.00     0.032 C 
BRANCH  15  16
ATOM     16  C   UNL d   1       2.898   1.160  -1.219  0.00  0.00     0.272 C 
BRANCH  16  17
ATOM     17  N   UNL d   1       3.048   1.709   0.125  0.00  0.00     0.091 N 
ATOM     18  C   UNL d   1       3.781   0.764   0.978  0.00  0.00     0.292 C 
ATOM     19  C   UNL d   1       5.239   0.589   0.543  0.00  0.00     0.153 C 
ATOM     20  N   UNL d   1       5.875   1.896   0.419  0.00  0.00    -0.376 N 
ATOM     21  C   UNL d   1       5.183   2.895  -0.387  0.00  0.00     0.153 C 
ATOM     22  C   UNL d   1       3.728   3.012   0.074  0.00  0.00     0.292 C 
BRANCH  20  23
ATOM     23  C   UNL d   1       7.282   2.030   0.675  0.00  0.00     0.053 A 
ATOM     24  C   UNL d   1       8.113   2.571  -0.317  0.00  0.00     0.031 A 
ATOM     25  C   UNL d   1       9.485   2.704  -0.104  0.00  0.00     0.004 A 
ATOM     26  C   UNL d   1      10.043   2.299   1.107  0.00  0.00     0.026 A 
ATOM     27  C   UNL d   1       9.235   1.766   2.114  0.00  0.00     0.058 A 
ATOM     28 CL   UNL d   1       9.995   1.289   3.624  0.00  0.00    -0.082 Cl
ATOM     29  C   UNL d   1       7.848   1.631   1.909  0.00  0.00     0.082 A 
ATOM     30 CL   UNL d   1       6.827   1.037   3.219  0.00  0.00    -0.080 Cl
ENDBRANCH  20  23
ENDBRANCH  16  17
ENDBRANCH  15  16
ENDBRANCH  14  15
ENDBRANCH  13  14
ENDBRANCH  12  13
ENDBRANCH   9  12
BRANCH   1  31
ATOM     31  C   UNL d   1      -4.510  -2.397  -0.357  0.00  0.00     0.312 C 
BRANCH  31  32
ATOM     32  O   UNL d   1      -4.691  -2.180   1.038  0.00  0.00    -0.301 OA
BRANCH  32  33
ATOM     33  C   UNL d   1      -3.682  -1.672   1.860  0.00  0.00     0.260 C 
ATOM     34  O   UNL d   1      -2.557  -1.356   1.388  0.00  0.00    -0.265 OA
BRANCH  33  35
ATOM     35  C   UNL d   1      -3.958  -1.453   3.308  0.00  0.00     0.111 C 
BRANCH  35  36
ATOM     36  C   UNL d   1      -4.567  -0.079   3.525  0.00  0.00     0.010 C 
BRANCH  36  37
ATOM     37  C   UNL d   1      -6.042  -0.090   3.162  0.00  0.00     0.000 C 
BRANCH  37  38
ATOM     38  C   UNL d   1      -6.574   1.330   3.064  0.00  0.00     0.000 C 
BRANCH  38  39
ATOM     39  C   UNL d   1      -6.381   1.885   1.662  0.00  0.00     0.000 C 
BRANCH  39  40
ATOM     40  C   UNL d   1      -4.951   2.358   1.459  0.00  0.00     0.000 C 
BRANCH  40  41
ATOM     41  C   UNL d   1      -4.753   2.844   0.036  0.00  0.00     0.000 C 
BRANCH  41  42
ATOM     42  C   UNL d   1      -5.397   4.208  -0.152  0.00  0.00     0.000 C 
BRANCH  42  43
ATOM     43  C   UNL d   1      -5.259   4.665  -1.596  0.00  0.00    -0.000 C 
BRANCH  43  44
ATOM     44  C   UNL d   1      -6.216   3.913  -2.508  0.00  0.00    -0.005 C 
ATOM     45  C   UNL d   1      -7.636   4.407  -2.308  0.00  0.00     0.005 C 
ENDBRANCH  43  44
ENDBRANCH  42  43
ENDBRANCH  41  42
ENDBRANCH  40  41
ENDBRANCH  39  40
ENDBRANCH  38  39
ENDBRANCH  37  38
ENDBRANCH  36  37
ENDBRANCH  35  36
ENDBRANCH  33  35
ENDBRANCH  32  33
ENDBRANCH  31  32
ENDBRANCH   1  31
TORSDOF 20
