REMARK  8 active torsions:
REMARK  status: ('A' for Active; 'I' for Inactive)
REMARK       I    between atoms: N_2  and  C_3 
REMARK    1  A    between atoms: N_2  and  N_22 
REMARK       I    between atoms: C_3  and  N_5 
REMARK    2  A    between atoms: C_7  and  N_5 
REMARK    3  A    between atoms: C_8  and  O_20 
REMARK    4  A    between atoms: C_9  and  O_18 
REMARK    5  A    between atoms: C_10  and  C_15 
REMARK    6  A    between atoms: C_12  and  O_13 
REMARK    7  A    between atoms: C_15  and  O_16 
REMARK    8  A    between atoms: N_22  and  O_24 
ROOT
ATOM      1  C   UNL d   1       0.255   0.263  -1.188  0.00  0.00     0.172 C 
ATOM      2  C   UNL d   1       1.022  -1.031  -1.494  0.00  0.00     0.177 C 
ATOM      3  C   UNL d   1       1.753  -1.570  -0.263  0.00  0.00     0.180 C 
ATOM      4  C   UNL d   1       2.502  -0.428   0.429  0.00  0.00     0.179 C 
ATOM      5  O   UNL d   1       1.606   0.583   0.837  0.00  0.00    -0.349 OA
ATOM      6  C   UNL d   1       1.083   1.221  -0.312  0.00  0.00     0.282 C 
ENDROOT
BRANCH   1   7
ATOM      7  N   UNL d   1      -1.005  -0.056  -0.530  0.00  0.00    -0.330 N 
ATOM      8  C   UNL d   1      -2.075   0.886  -0.406  0.00  0.00     0.338 C 
ATOM      9  N   UNL d   1      -3.273   0.515   0.284  0.00  0.00    -0.228 N 
ATOM     10  O   UNL d   1      -1.962   2.039  -0.907  0.00  0.00    -0.245 OA
ATOM     11  C   UNL d   1      -4.369   1.468   0.412  0.00  0.00     0.185 C 
ATOM     12  HN  UNL d   1      -1.130  -0.990  -0.142  1.00  0.00     0.165 HD
BRANCH   9  13
ATOM     13  N   UNL d   1      -3.385  -0.770   0.838  0.00  0.00    -0.204 N 
ATOM     14  HN  UNL d   1      -2.610  -1.426   0.741  1.00  0.00     0.216 HD
BRANCH  13  15
ATOM     15  O   UNL d   1      -4.416  -1.125   1.446  0.00  0.00    -0.274 OA
ATOM     16  HO  UNL d   1      -4.491  -1.994   1.821  1.00  0.00     0.246 HD
ENDBRANCH  13  15
ENDBRANCH   9  13
ENDBRANCH   1   7
BRANCH   6  17
ATOM     17  O   UNL d   1       2.092   1.847  -1.055  0.00  0.00    -0.369 OA
ATOM     18  HO  UNL d   1       2.603   2.438  -0.514  1.00  0.00     0.212 HD
ENDBRANCH   6  17
BRANCH   2  19
ATOM     19  O   UNL d   1       1.933  -0.809  -2.527  0.00  0.00    -0.391 OA
ATOM     20  HO  UNL d   1       2.408  -1.610  -2.716  1.00  0.00     0.210 HD
ENDBRANCH   2  19
BRANCH   3  21
ATOM     21  O   UNL d   1       0.838  -2.162   0.612  0.00  0.00    -0.390 OA
ATOM     22  HO  UNL d   1       1.292  -2.498   1.376  1.00  0.00     0.210 HD
ENDBRANCH   3  21
BRANCH   4  23
ATOM     23  C   UNL d   1       3.292  -0.943   1.620  0.00  0.00     0.198 C 
BRANCH  23  24
ATOM     24  O   UNL d   1       4.107   0.071   2.122  0.00  0.00    -0.398 OA
ATOM     25  HO  UNL d   1       4.601  -0.251   2.867  1.00  0.00     0.209 HD
ENDBRANCH  23  24
ENDBRANCH   4  23
TORSDOF 8
