REMARK  3 active torsions:
REMARK  status: ('A' for Active; 'I' for Inactive)
REMARK    1  A    between atoms: C_14  and  N_10 
REMARK    2  A    between atoms: C_17  and  C_19 
REMARK    3  A    between atoms: C_19  and  O_20 
ROOT
ATOM      1  C   UNL d   1      -1.408  -1.391   1.808  0.00  0.00     0.185 A 
ATOM      2  N   UNL d   1      -2.742  -1.085   1.710  0.00  0.00    -0.318 N 
ATOM      3  HN  UNL d   1      -3.404  -1.519   2.354  1.00  0.00     0.169 HD
ATOM      4  C   UNL d   1      -3.200  -0.210   0.766  0.00  0.00     0.277 A 
ATOM      5  O   UNL d   1      -4.426   0.062   0.683  0.00  0.00    -0.266 OA
ATOM      6  C   UNL d   1      -2.271   0.361  -0.091  0.00  0.00     0.146 A 
ATOM      7  C   UNL d   1      -0.964   0.046   0.026  0.00  0.00     0.144 A 
ATOM      8  N   UNL d   1      -0.500  -0.823   0.958  0.00  0.00    -0.336 N 
ATOM      9  HN  UNL d   1       0.494  -1.044   1.022  1.00  0.00     0.168 HD
ATOM     10  N   UNL d   1      -0.264   0.710  -0.902  0.00  0.00    -0.300 N 
ATOM     11  C   UNL d   1      -1.194   1.428  -1.580  0.00  0.00     0.188 A 
ATOM     12  N   UNL d   1      -2.456   1.235  -1.099  0.00  0.00    -0.345 N 
ATOM     13  HN  UNL d   1      -3.328   1.652  -1.424  1.00  0.00     0.167 HD
ENDROOT
BRANCH  10  14
ATOM     14  C   UNL d   1       1.168   0.671  -1.171  0.00  0.00     0.231 C 
ATOM     15  O   UNL d   1       1.897   0.949   0.003  0.00  0.00    -0.359 OA
ATOM     16  C   UNL d   1       2.788  -0.122   0.199  0.00  0.00     0.147 C 
ATOM     17  C   UNL d   1       2.890  -0.922  -1.077  0.00  0.00     0.038 C 
ATOM     18  C   UNL d   1       1.570  -0.678  -1.723  0.00  0.00     0.057 C 
BRANCH  16  19
ATOM     19  C   UNL d   1       4.151   0.409   0.605  0.00  0.00     0.196 C 
BRANCH  19  20
ATOM     20  O   UNL d   1       4.963  -0.640   1.037  0.00  0.00    -0.398 OA
ATOM     21  HO  UNL d   1       5.816  -0.307   1.291  1.00  0.00     0.209 HD
ENDBRANCH  19  20
ENDBRANCH  16  19
ENDBRANCH  10  14
TORSDOF 3
