REMARK  9 active torsions:
REMARK  status: ('A' for Active; 'I' for Inactive)
REMARK    1  A    between atoms: C_3  and  N_9 
REMARK    2  A    between atoms: C_6  and  C_7 
REMARK       I    between atoms: C_7  and  N_28 
REMARK    3  A    between atoms: N_9  and  C_11 
REMARK    4  A    between atoms: C_11  and  C_12 
REMARK    5  A    between atoms: N_28  and  CA_30 
REMARK    6  A    between atoms: CA_30  and  CB_31 
REMARK    7  A    between atoms: CA_30  and  C_35 
REMARK    8  A    between atoms: CB_31  and  CG_32 
REMARK    9  A    between atoms: CG_32  and  CD_33 
ROOT
ATOM      1  C   UNK d   0       0.651  -1.343   1.484  0.00  0.00     0.019 A 
ATOM      2  C   UNK d   0      -0.411  -1.945   0.805  0.00  0.00     0.030 A 
ATOM      3  C   UNK d   0      -0.462  -1.915  -0.596  0.00  0.00     0.028 A 
ATOM      4  C   UNK d   0       0.562  -1.283  -1.308  0.00  0.00     0.030 A 
ATOM      5  C   UNK d   0       1.625  -0.681  -0.629  0.00  0.00     0.019 A 
ATOM      6  C   UNK d   0       1.677  -0.706   0.772  0.00  0.00     0.032 A 
ENDROOT
BRANCH   3   7
ATOM      7  N   UNK d   0      -1.538  -2.525  -1.315  0.00  0.00    -0.384 N 
ATOM      8  HN  UNK d   0      -1.499  -2.520  -2.334  1.00  0.00     0.160 HD
BRANCH   7   9
ATOM      9  C   UNK d   0      -2.688  -3.153  -0.675  0.00  0.00     0.178 C 
BRANCH   9  10
ATOM     10  C   UNK d   0      -3.619  -2.115  -0.146  0.00  0.00     0.043 A 
ATOM     11  N   UNK d   0      -4.277  -1.285  -1.000  0.00  0.00    -0.350 N 
ATOM     12  C   UNK d   0      -5.123  -0.330  -0.530  0.00  0.00     0.146 A 
ATOM     13  HN  UNK d   0      -4.134  -1.381  -2.006  1.00  0.00     0.166 HD
ATOM     14  C   UNK d   0      -5.319  -0.199   0.855  0.00  0.00     0.140 A 
ATOM     15  C   UNK d   0      -5.810   0.537  -1.384  0.00  0.00     0.278 A 
ATOM     16  N   UNK d   0      -4.662  -1.031   1.705  0.00  0.00    -0.348 N 
ATOM     17  N   UNK d   0      -6.161   0.752   1.334  0.00  0.00    -0.314 N 
ATOM     18  C   UNK d   0      -3.816  -1.986   1.233  0.00  0.00     0.116 A 
ATOM     19  HN  UNK d   0      -4.804  -0.938   2.710  1.00  0.00     0.167 HD
ATOM     20  C   UNK d   0      -6.821   1.585   0.485  0.00  0.00     0.196 A 
ATOM     21  HN  UNK d   0      -6.301   0.842   2.340  1.00  0.00     0.170 HD
ATOM     22  N   UNK d   0      -6.643   1.474  -0.859  0.00  0.00    -0.295 N 
ATOM     23  N   UNK d   0      -7.699   2.576   1.004  0.00  0.00    -0.063 NA
ATOM     24  HN  UNK d   0      -7.143   2.106  -1.485  1.00  0.00     0.171 HD
ATOM     25  O   UNK d   0      -5.664   0.458  -2.633  0.00  0.00    -0.265 OA
ENDBRANCH   9  10
ENDBRANCH   7   9
ENDBRANCH   3   7
BRANCH   6  26
ATOM     26  C   UNK d   0       2.798  -0.071   1.486  0.00  0.00     0.252 C 
ATOM     27  O   UNK d   0       2.840  -0.098   2.747  0.00  0.00    -0.268 OA
ATOM     28  N   GLU d   1       3.839   0.579   0.750  0.00  0.00    -0.342 N 
ATOM     29  HN  GLU d   1       3.770   0.612  -0.267  1.00  0.00     0.163 HD
BRANCH  28  30
ATOM     30  CA  GLU d   1       4.995   1.197   1.391  0.00  0.00     0.186 C 
BRANCH  30  31
ATOM     31  CB  GLU d   1       5.702   2.154   0.433  0.00  0.00     0.046 C 
BRANCH  31  32
ATOM     32  CG  GLU d   1       6.154   1.466  -0.848  0.00  0.00     0.116 C 
BRANCH  32  33
ATOM     33  CD  GLU d   1       6.834   2.448  -1.734  0.00  0.00     0.172 C 
ATOM     34  OE1 GLU d   1       6.177   3.064  -2.612  0.00  0.00    -0.648 OA
ATOM     35  OE2 GLU d   1       8.188   2.710  -1.569  0.00  0.00    -0.648 OA
ENDBRANCH  32  33
ENDBRANCH  31  32
ENDBRANCH  30  31
BRANCH  30  36
ATOM     36  C   GLU d   1       5.933   0.166   1.940  0.00  0.00     0.196 C 
ATOM     37  O   GLU d   1       6.237  -0.852   1.262  0.00  0.00    -0.646 OA
ATOM     38  OXT GLU d   1       6.499   0.351   3.193  0.00  0.00    -0.646 OA
ENDBRANCH  30  36
ENDBRANCH  28  30
ENDBRANCH   6  26
TORSDOF 9
