REMARK  8 active torsions:
REMARK  status: ('A' for Active; 'I' for Inactive)
REMARK    1  A    between atoms: C_2  and  N_5 
REMARK    2  A    between atoms: N_5  and  C_8 
REMARK    3  A    between atoms: C_9  and  C_8 
REMARK    4  A    between atoms: C_9  and  O_10 
REMARK    5  A    between atoms: C_9  and  C_12 
REMARK    6  A    between atoms: C_15  and  O_16 
REMARK    7  A    between atoms: C_18  and  C_19 
REMARK    8  A    between atoms: C_19  and  O_20 
ROOT
ATOM      1  C   UNL d   1       0.586   0.128  -0.628  0.00  0.00    -0.027 A 
ATOM      2  C   UNL d   1       0.909  -1.137  -1.141  0.00  0.00     0.012 A 
ATOM      3  C   UNL d   1       2.200  -1.649  -0.983  0.00  0.00     0.038 A 
ATOM      4  C   UNL d   1       3.173  -0.906  -0.309  0.00  0.00     0.074 A 
ATOM      5  C   UNL d   1       2.851   0.356   0.215  0.00  0.00    -0.001 A 
ATOM      6  C   UNL d   1       1.560   0.869   0.049  0.00  0.00     0.022 A 
ENDROOT
BRANCH   1   7
ATOM      7  C   UNL d   1      -0.789   0.693  -0.777  0.00  0.00     0.176 C 
BRANCH   7   8
ATOM      8  C   UNL d   1      -1.780  -0.086   0.071  0.00  0.00     0.269 C 
BRANCH   8   9
ATOM      9  N   UNL d   1      -3.070   0.602   0.087  0.00  0.00    -0.065 N 
ATOM     10  HN2 UNL d   1      -3.411   0.780  -0.858  1.00  0.00     0.278 HD
ATOM     11  HN1 UNL d   1      -2.975   1.566   0.405  1.00  0.00     0.278 HD
BRANCH   9  12
ATOM     12  C   UNL d   1      -4.058  -0.133   0.885  0.00  0.00     0.115 C 
ATOM     13  C   UNL d   1      -5.362   0.635   0.857  0.00  0.00     0.045 C 
ATOM     14  C   UNL d   1      -4.312  -1.517   0.306  0.00  0.00     0.045 C 
ATOM     15  C   UNL d   1      -3.612  -0.253   2.335  0.00  0.00     0.045 C 
ENDBRANCH   9  12
ENDBRANCH   8   9
ENDBRANCH   7   8
BRANCH   7  16
ATOM     16  O   UNL d   1      -1.179   0.668  -2.119  0.00  0.00    -0.389 OA
ATOM     17  HO  UNL d   1      -0.559   1.155  -2.649  1.00  0.00     0.210 HD
ENDBRANCH   7  16
ENDBRANCH   1   7
BRANCH   5  18
ATOM     18  C   UNL d   1       3.877   1.179   0.919  0.00  0.00     0.205 C 
BRANCH  18  19
ATOM     19  O   UNL d   1       4.553   1.978  -0.002  0.00  0.00    -0.396 OA
ATOM     20  HO  UNL d   1       5.206   2.502   0.447  1.00  0.00     0.209 HD
ENDBRANCH  18  19
ENDBRANCH   5  18
BRANCH   4  21
ATOM     21  O   UNL d   1       4.453  -1.428  -0.165  0.00  0.00    -0.360 OA
ATOM     22  HO  UNL d   1       5.115  -0.923   0.292  1.00  0.00     0.217 HD
ENDBRANCH   4  21
TORSDOF 8
