REMARK  3 active torsions:
REMARK  status: ('A' for Active; 'I' for Inactive)
REMARK    1  A    between atoms: S_2  and  C_3 
REMARK    2  A    between atoms: C_13  and  O_14 
REMARK    3  A    between atoms: O_14  and  C_15 
ROOT
ATOM      1  C   UNL d   1       4.208   0.257   0.110  0.00  0.00     0.144 A 
ATOM      2  N   UNL d   1       3.085   0.946  -0.219  0.00  0.00    -0.335 N 
ATOM      3  HN  UNL d   1       2.993   1.917  -0.518  1.00  0.00     0.168 HD
ATOM      4  C   UNL d   1       2.127   0.024  -0.051  0.00  0.00     0.064 A 
ATOM      5  C   UNL d   1       2.670  -1.153   0.357  0.00  0.00     0.062 A 
ATOM      6  N   UNL d   1       4.000  -1.037   0.469  0.00  0.00    -0.335 N 
ATOM      7  HN  UNL d   1       4.683  -1.740   0.751  1.00  0.00     0.168 HD
ATOM      8  C   UNL d   1       1.893  -2.280   0.601  0.00  0.00     0.058 A 
ATOM      9  C   UNL d   1       0.503  -2.166   0.412  0.00  0.00     0.070 A 
ATOM     10 CL   UNL d   1      -0.505  -3.572   0.708  0.00  0.00    -0.081 Cl
ATOM     11  C   UNL d   1      -0.076  -0.939  -0.006  0.00  0.00     0.100 A 
ATOM     12  C   UNL d   1       0.759   0.176  -0.249  0.00  0.00     0.071 A 
ENDROOT
BRANCH  11  13
ATOM     13  O   UNL d   1      -1.468  -0.882  -0.198  0.00  0.00    -0.307 OA
BRANCH  13  14
ATOM     14  C   UNL d   1      -2.258   0.271  -0.349  0.00  0.00     0.099 A 
ATOM     15  C   UNL d   1      -3.578   0.132  -0.815  0.00  0.00     0.089 A 
ATOM     16 CL   UNL d   1      -4.190  -1.470  -1.219  0.00  0.00    -0.080 Cl
ATOM     17  C   UNL d   1      -4.397   1.267  -0.958  0.00  0.00     0.058 A 
ATOM     18 CL   UNL d   1      -6.049   1.143  -1.542  0.00  0.00    -0.082 Cl
ATOM     19  C   UNL d   1      -3.901   2.530  -0.629  0.00  0.00     0.026 A 
ATOM     20  C   UNL d   1      -2.596   2.672  -0.158  0.00  0.00     0.005 A 
ATOM     21  C   UNL d   1      -1.781   1.549  -0.016  0.00  0.00     0.039 A 
ENDBRANCH  13  14
ENDBRANCH  11  13
BRANCH   1  22
ATOM     22  S   UNL d   1       5.836   0.994   0.066  0.00  0.00    -0.098 SA
ATOM     23  C   UNL d   1       5.719   1.540   1.793  0.00  0.00     0.099 C 
ENDBRANCH   1  22
TORSDOF 3
