REMARK  7 active torsions:
REMARK  status: ('A' for Active; 'I' for Inactive)
REMARK    1  A    between atoms: C_3  and  C_2 
REMARK    2  A    between atoms: C_3  and  C_4 
REMARK    3  A    between atoms: C_3  and  C_29 
REMARK    4  A    between atoms: C_4  and  C_5 
REMARK    5  A    between atoms: C_5  and  C_6 
REMARK    6  A    between atoms: C_6  and  C_8 
REMARK    7  A    between atoms: C_23  and  O_25 
ROOT
ATOM      1  C   UNL d   1       1.778   0.451   0.308  0.00  0.00    -0.002 C 
ATOM      2  C   UNL d   1       2.022  -1.051   0.554  0.00  0.00     0.006 C 
ATOM      3  C   UNL d   1       0.660  -1.742   0.605  0.00  0.00     0.006 C 
ATOM      4  C   UNL d   1      -0.293  -0.693   0.085  0.00  0.00    -0.001 C 
ATOM      5  C   UNL d   1       0.270   0.660   0.471  0.00  0.00    -0.036 C 
ATOM      6  C   UNL d   1      -0.371   1.763  -0.400  0.00  0.00     0.010 C 
ATOM      7  C   UNL d   1      -1.853   1.494  -0.756  0.00  0.00     0.007 C 
ATOM      8  C   UNL d   1      -2.511   0.501   0.221  0.00  0.00     0.003 C 
ATOM      9  C   UNL d   1      -1.810  -0.863   0.260  0.00  0.00    -0.001 C 
ATOM     10  C   UNL d   1      -2.221  -1.529   1.565  0.00  0.00     0.033 C 
ATOM     11  C   UNL d   1      -3.717  -1.689   1.582  0.00  0.00    -0.023 C 
ATOM     12  C   UNL d   1      -4.551  -0.812   0.987  0.00  0.00    -0.072 C 
ATOM     13  C   UNL d   1      -4.047   0.374   0.157  0.00  0.00    -0.017 C 
ATOM     14  C   UNL d   1      -4.526   0.251  -1.305  0.00  0.00     0.016 C 
ATOM     15  C   UNL d   1      -5.738  -0.672  -1.524  0.00  0.00     0.033 C 
ATOM     16  C   UNL d   1      -6.702  -0.690  -0.333  0.00  0.00     0.122 C 
ATOM     17  C   UNL d   1      -6.014  -1.163   0.954  0.00  0.00     0.066 C 
ATOM     18  C   UNL d   1      -4.624   1.653   0.745  0.00  0.00     0.020 C 
ATOM     19  C   UNL d   1       0.004   0.981   1.941  0.00  0.00     0.016 C 
ENDROOT
BRANCH   1  20
ATOM     20  C   UNL d   1       2.346   0.927  -1.046  0.00  0.00    -0.014 C 
ATOM     21  C   UNL d   1       1.949   0.059  -2.236  0.00  0.00     0.010 C 
BRANCH  20  22
ATOM     22  C   UNL d   1       3.849   1.191  -0.994  0.00  0.00     0.005 C 
BRANCH  22  23
ATOM     23  C   UNL d   1       4.664  -0.089  -0.862  0.00  0.00     0.005 C 
BRANCH  23  24
ATOM     24  C   UNL d   1       6.145   0.235  -0.669  0.00  0.00    -0.012 C 
BRANCH  24  25
ATOM     25  C   UNL d   1       7.007  -0.891  -1.222  0.00  0.00     0.000 C 
ATOM     26  C   UNL d   1       7.007  -0.865  -2.739  0.00  0.00     0.005 C 
ENDBRANCH  24  25
BRANCH  24  27
ATOM     27  C   UNL d   1       6.514   0.503   0.796  0.00  0.00    -0.019 C 
ATOM     28  C   UNL d   1       5.998   1.850   1.263  0.00  0.00     0.010 C 
ATOM     29  C   UNL d   1       6.043  -0.596   1.739  0.00  0.00     0.010 C 
ENDBRANCH  24  27
ENDBRANCH  23  24
ENDBRANCH  22  23
ENDBRANCH  20  22
ENDBRANCH   1  20
BRANCH  16  30
ATOM     30  O   UNL d   1      -7.278   0.568  -0.147  0.00  0.00    -0.395 OA
ATOM     31  HO  UNL d   1      -7.875   0.558   0.591  1.00  0.00     0.210 HD
ENDBRANCH  16  30
TORSDOF 7
