REMARK  2 active torsions:
REMARK  status: ('A' for Active; 'I' for Inactive)
REMARK    1  A    between atoms: C_2  and  C_3 
REMARK    2  A    between atoms: C_3  and  C_12 
ROOT
ATOM      1  C   UNL d   1       0.778  -0.769   0.128  0.00  0.00     0.068 C 
ATOM      2  C   UNL d   1       1.607   0.017   1.164  0.00  0.00     0.033 C 
ATOM      3  C   UNL d   1       1.702   1.505   0.833  0.00  0.00     0.105 C 
ATOM      4  C   UNL d   1       2.273   1.688  -0.535  0.00  0.00     0.224 C 
ATOM      5  O   UNL d   1       2.931   2.725  -0.806  0.00  0.00    -0.273 OA
ATOM      6  N   UNL d   1       2.027   0.716  -1.553  0.00  0.00    -0.297 N 
ATOM      7  HN  UNL d   1       2.375   0.882  -2.497  1.00  0.00     0.171 HD
ATOM      8  C   UNL d   1       1.302  -0.486  -1.275  0.00  0.00     0.237 C 
ATOM      9  O   UNL d   1       1.050  -1.281  -2.220  0.00  0.00    -0.272 OA
ENDROOT
BRANCH   1  10
ATOM     10  C   UNL d   1       0.913  -2.273   0.435  0.00  0.00     0.020 C 
ATOM     11  C   UNL d   1       2.350  -2.776   0.382  0.00  0.00     0.006 C 
ENDBRANCH   1  10
BRANCH   1  12
ATOM     12  C   UNL d   1      -0.687  -0.375   0.270  0.00  0.00    -0.040 A 
ATOM     13  C   UNL d   1      -1.395  -0.721   1.436  0.00  0.00     0.010 A 
ATOM     14  C   UNL d   1      -2.728  -0.337   1.603  0.00  0.00     0.027 A 
ATOM     15  C   UNL d   1      -3.370   0.408   0.612  0.00  0.00     0.046 A 
ATOM     16  N   UNL d   1      -4.727   0.798   0.783  0.00  0.00    -0.102 NA
ATOM     17  C   UNL d   1      -2.679   0.773  -0.544  0.00  0.00     0.027 A 
ATOM     18  C   UNL d   1      -1.346   0.389  -0.712  0.00  0.00     0.010 A 
ENDBRANCH   1  12
TORSDOF 2
