REMARK  6 active torsions:
REMARK  status: ('A' for Active; 'I' for Inactive)
REMARK    1  A    between atoms: C_3  and  C_4 
REMARK    2  A    between atoms: C_3  and  N_20 
REMARK    3  A    between atoms: C_4  and  O_5 
REMARK    4  A    between atoms: C_6  and  O_5 
REMARK    5  A    between atoms: C_6  and  C_7 
REMARK    6  A    between atoms: C_6  and  C_13 
ROOT
ATOM      1  C   UNL d   1       0.083   0.281  -0.270  0.00  0.00     0.187 C 
ENDROOT
BRANCH   1   2
ATOM      2  O   UNL d   1       1.107  -0.594   0.108  0.00  0.00    -0.375 OA
BRANCH   2   3
ATOM      3  C   UNL d   1       1.877  -0.764  -1.044  0.00  0.00     0.199 C 
BRANCH   3   4
ATOM      4  C   UNL d   1       3.071  -1.644  -0.729  0.00  0.00     0.297 C 
BRANCH   4   5
ATOM      5  N   UNL d   1       3.883  -1.819  -1.920  0.00  0.00     0.082 N 
ATOM      6  C   UNL d   1       4.969  -0.857  -1.841  0.00  0.00     0.309 C 
ATOM      7  C   UNL d   1       4.488  -3.134  -1.821  0.00  0.00     0.309 C 
ENDBRANCH   4   5
ENDBRANCH   3   4
ENDBRANCH   2   3
ENDBRANCH   1   2
BRANCH   1   8
ATOM      8  C   UNL d   1       0.156   1.560   0.507  0.00  0.00    -0.025 A 
ATOM      9  C   UNL d   1       0.047   2.779  -0.171  0.00  0.00     0.010 A 
ATOM     10  C   UNL d   1       0.096   3.984   0.536  0.00  0.00     0.001 A 
ATOM     11  C   UNL d   1       0.250   3.974   1.925  0.00  0.00     0.000 A 
ATOM     12  C   UNL d   1       0.354   2.759   2.609  0.00  0.00     0.001 A 
ATOM     13  C   UNL d   1       0.305   1.554   1.902  0.00  0.00     0.010 A 
ENDBRANCH   1   8
BRANCH   1  14
ATOM     14  C   UNL d   1      -1.259  -0.372  -0.130  0.00  0.00    -0.025 A 
ATOM     15  C   UNL d   1      -1.611  -1.063   1.040  0.00  0.00     0.011 A 
ATOM     16  C   UNL d   1      -2.874  -1.648   1.156  0.00  0.00     0.019 A 
ATOM     17  C   UNL d   1      -3.793  -1.542   0.108  0.00  0.00     0.011 A 
ATOM     18  C   UNL d   1      -3.448  -0.850  -1.057  0.00  0.00     0.019 A 
ATOM     19 BR   UNL d   1      -5.515  -2.340   0.267  0.00  0.00    -0.051 Br
ATOM     20  C   UNL d   1      -2.184  -0.264  -1.174  0.00  0.00     0.011 A 
ENDBRANCH   1  14
TORSDOF 6
