REMARK  10 active torsions:
REMARK  status: ('A' for Active; 'I' for Inactive)
REMARK    1  A    between atoms: C_2  and  C_3 
REMARK    2  A    between atoms: C_2  and  N_26 
REMARK    3  A    between atoms: C_3  and  C_4 
REMARK    4  A    between atoms: C_7  and  O_10 
REMARK    5  A    between atoms: C_12  and  C_13 
REMARK    6  A    between atoms: C_12  and  N_26 
REMARK    7  A    between atoms: C_13  and  C_14 
REMARK    8  A    between atoms: C_13  and  O_24 
REMARK    9  A    between atoms: C_16  and  O_22 
REMARK   10  A    between atoms: C_18  and  O_20 
ROOT
ATOM      1  C   UNL d   1      -0.401  -0.483  -1.252  0.00  0.00     0.269 C 
ENDROOT
BRANCH   1   2
ATOM      2  C   UNL d   1      -1.355  -0.736  -0.096  0.00  0.00     0.177 C 
BRANCH   2   3
ATOM      3  C   UNL d   1      -2.705  -0.173  -0.397  0.00  0.00    -0.023 A 
ATOM      4  C   UNL d   1      -3.775  -1.045  -0.628  0.00  0.00     0.046 A 
ATOM      5  C   UNL d   1      -5.045  -0.538  -0.922  0.00  0.00     0.069 A 
ATOM      6  C   UNL d   1      -5.248   0.843  -0.988  0.00  0.00     0.073 A 
ATOM      7  C   UNL d   1      -4.182   1.719  -0.760  0.00  0.00     0.069 A 
ATOM      8  C   UNL d   1      -2.913   1.213  -0.467  0.00  0.00     0.046 A 
BRANCH   5   9
ATOM      9  O   UNL d   1      -6.103  -1.407  -1.149  0.00  0.00    -0.361 OA
ATOM     10  HO  UNL d   1      -5.964  -2.346  -1.104  1.00  0.00     0.217 HD
ENDBRANCH   5   9
BRANCH   7  11
ATOM     11  O   UNL d   1      -4.385   3.090  -0.827  0.00  0.00    -0.361 OA
ATOM     12  HO  UNL d   1      -5.247   3.434  -1.026  1.00  0.00     0.217 HD
ENDBRANCH   7  11
ENDBRANCH   2   3
BRANCH   2  13
ATOM     13  O   UNL d   1      -0.848  -0.174   1.079  0.00  0.00    -0.389 OA
ATOM     14  HO  UNL d   1      -1.444  -0.333   1.801  1.00  0.00     0.210 HD
ENDBRANCH   2  13
ENDBRANCH   1   2
BRANCH   1  15
ATOM     15  N   UNL d   1       0.844  -1.200  -1.031  0.00  0.00    -0.068 N 
ATOM     16  HN2 UNL d   1       0.718  -2.210  -0.980  1.00  0.00     0.277 HD
ATOM     17  HN1 UNL d   1       1.221  -1.065  -0.093  1.00  0.00     0.277 HD
BRANCH  15  18
ATOM     18  C   UNL d   1       1.771  -0.795  -2.079  0.00  0.00     0.186 C 
ATOM     19  C   UNL d   1       2.712  -1.939  -2.408  0.00  0.00     0.040 C 
BRANCH  18  20
ATOM     20  C   UNL d   1       2.545   0.469  -1.685  0.00  0.00     0.071 C 
BRANCH  20  21
ATOM     21  C   UNL d   1       3.279   0.335  -0.388  0.00  0.00    -0.056 A 
ATOM     22  C   UNL d   1       4.596  -0.140  -0.370  0.00  0.00     0.010 A 
ATOM     23  C   UNL d   1       5.277  -0.271   0.843  0.00  0.00     0.037 A 
ATOM     24  C   UNL d   1       4.643   0.071   2.042  0.00  0.00     0.065 A 
ATOM     25  C   UNL d   1       3.328   0.545   2.027  0.00  0.00     0.037 A 
ATOM     26  C   UNL d   1       2.646   0.677   0.813  0.00  0.00     0.010 A 
BRANCH  24  27
ATOM     27  O   UNL d   1       5.319  -0.060   3.247  0.00  0.00    -0.361 OA
ATOM     28  HO  UNL d   1       6.213  -0.383   3.257  1.00  0.00     0.217 HD
ENDBRANCH  24  27
ENDBRANCH  20  21
ENDBRANCH  18  20
ENDBRANCH  15  18
ENDBRANCH   1  15
TORSDOF 10
