REMARK  0 active torsions:
REMARK  status: ('A' for Active; 'I' for Inactive)
ROOT
ATOM      1  O   UNL d   1       1.359  -1.931   1.127  0.00  0.00    -0.285 OA
ATOM      2  C   UNL d   1       1.613  -0.840   0.554  0.00  0.00     0.213 A 
ATOM      3  C   UNL d   1       0.667   0.126  -0.026  0.00  0.00     0.115 A 
ATOM      4  N   UNL d   1       1.398   1.230  -0.576  0.00  0.00    -0.350 N 
ATOM      5  HN  UNL d   1       1.023   2.054  -1.045  1.00  0.00     0.166 HD
ATOM      6  C   UNL d   1       2.767   0.918  -0.322  0.00  0.00     0.047 A 
ATOM      7  C   UNL d   1       2.930  -0.282   0.336  0.00  0.00     0.043 A 
ATOM      8  C   UNL d   1       4.188  -0.772   0.679  0.00  0.00     0.018 A 
ATOM      9  C   UNL d   1       5.308   0.003   0.331  0.00  0.00     0.001 A 
ATOM     10  C   UNL d   1       5.147   1.231  -0.342  0.00  0.00     0.002 A 
ATOM     11  C   UNL d   1       3.865   1.701  -0.676  0.00  0.00     0.030 A 
ATOM     12  C   UNL d   1      -0.672   0.062  -0.076  0.00  0.00     0.115 A 
ATOM     13  C   UNL d   1      -1.563  -0.990   0.437  0.00  0.00     0.213 A 
ATOM     14  O   UNL d   1      -1.251  -2.054   1.031  0.00  0.00    -0.285 OA
ATOM     15  C   UNL d   1      -2.907  -0.558   0.119  0.00  0.00     0.043 A 
ATOM     16  C   UNL d   1      -2.810   0.654  -0.529  0.00  0.00     0.047 A 
ATOM     17  N   UNL d   1      -1.461   1.095  -0.682  0.00  0.00    -0.350 N 
ATOM     18  HN  UNL d   1      -1.132   1.953  -1.125  1.00  0.00     0.166 HD
ATOM     19  C   UNL d   1      -3.947   1.331  -0.966  0.00  0.00     0.030 A 
ATOM     20  C   UNL d   1      -5.201   0.742  -0.726  0.00  0.00     0.002 A 
ATOM     21  C   UNL d   1      -5.294  -0.499  -0.062  0.00  0.00     0.001 A 
ATOM     22  C   UNL d   1      -4.136  -1.165   0.370  0.00  0.00     0.018 A 
ENDROOT
TORSDOF 0
