REMARK  1 active torsions:
REMARK  status: ('A' for Active; 'I' for Inactive)
REMARK    1  A    between atoms: C_16  and  O_22 
ROOT
ATOM      1  C   UNL d   1      -0.273   2.865  -1.691  0.00  0.00     0.010 C 
ATOM      2  C   UNL d   1       0.408   1.554  -1.342  0.00  0.00    -0.010 C 
ATOM      3  C   UNL d   1       1.749   1.920  -0.717  0.00  0.00     0.039 C 
ATOM      4  C   UNL d   1       2.498   0.709  -0.266  0.00  0.00    -0.067 C 
ATOM      5  C   UNL d   1       3.823   0.691  -0.443  0.00  0.00     0.053 C 
ATOM      6  C   UNL d   1       4.651  -0.405   0.075  0.00  0.00     0.149 C 
ATOM      7  O   UNL d   1       5.888  -0.419  -0.154  0.00  0.00    -0.293 OA
ATOM      8  C   UNL d   1       4.040  -1.467   0.930  0.00  0.00     0.084 C 
ATOM      9  C   UNL d   1       2.576  -1.673   0.543  0.00  0.00     0.022 C 
ATOM     10  C   UNL d   1       1.776  -0.354   0.545  0.00  0.00    -0.016 C 
ATOM     11  C   UNL d   1       0.392  -0.618  -0.086  0.00  0.00     0.003 C 
ATOM     12  C   UNL d   1      -0.424   0.670  -0.381  0.00  0.00    -0.001 C 
ATOM     13  C   UNL d   1      -1.815   0.270  -0.944  0.00  0.00     0.001 C 
ATOM     14  C   UNL d   1      -2.738   1.465  -1.177  0.00  0.00     0.009 C 
ATOM     15  C   UNL d   1      -4.096   1.103  -0.610  0.00  0.00     0.038 C 
ATOM     16  C   UNL d   1      -3.814   0.100   0.483  0.00  0.00     0.062 C 
ATOM     17  C   UNL d   1      -2.597  -0.705  -0.036  0.00  0.00    -0.009 C 
ATOM     18  C   UNL d   1      -1.756  -1.277   1.117  0.00  0.00     0.013 C 
ATOM     19  C   UNL d   1      -0.389  -1.735   0.633  0.00  0.00     0.007 C 
ATOM     20  C   UNL d   1      -3.052  -1.867  -0.918  0.00  0.00     0.018 C 
ATOM     21  C   UNL d   1      -3.524   0.870   1.770  0.00  0.00     0.046 C 
ATOM     22  C   UNL d   1       1.612   0.139   1.981  0.00  0.00     0.020 C 
ENDROOT
BRANCH  16  23
ATOM     23  O   UNL d   1      -4.933  -0.713   0.687  0.00  0.00    -0.389 OA
ATOM     24  HO  UNL d   1      -4.755  -1.344   1.374  1.00  0.00     0.210 HD
ENDBRANCH  16  23
TORSDOF 1
