REMARK  6 active torsions:
REMARK  status: ('A' for Active; 'I' for Inactive)
REMARK    1  A    between atoms: C_5  and  O_29 
REMARK    2  A    between atoms: C_8  and  C_9 
REMARK    3  A    between atoms: C_18  and  C_19 
REMARK    4  A    between atoms: C_19  and  C_21 
REMARK    5  A    between atoms: C_22  and  C_23 
REMARK    6  A    between atoms: C_23  and  C_25 
ROOT
ATOM      1  C   UNL d   1       2.591  -0.183   0.266  0.00  0.00     0.003 C 
ATOM      2  C   UNL d   1       1.532  -0.062  -0.538  0.00  0.00    -0.075 C 
ATOM      3  C   UNL d   1       1.670   0.224  -2.015  0.00  0.00     0.034 C 
ATOM      4  C   UNL d   1       0.388  -0.147  -2.793  0.00  0.00     0.005 C 
ATOM      5  C   UNL d   1      -0.926   0.401  -2.182  0.00  0.00     0.010 C 
ATOM      6  C   UNL d   1      -0.831   0.709  -0.682  0.00  0.00    -0.032 C 
ATOM      7  C   UNL d   1       0.136  -0.252  -0.021  0.00  0.00     0.023 C 
ATOM      8  C   UNL d   1      -0.150  -0.177   1.467  0.00  0.00     0.010 C 
ATOM      9  C   UNL d   1      -1.657   0.083   1.535  0.00  0.00     0.007 C 
ATOM     10  C   UNL d   1      -2.103   0.400   0.099  0.00  0.00     0.002 C 
ATOM     11  C   UNL d   1      -0.393   2.168  -0.496  0.00  0.00     0.016 C 
ENDROOT
BRANCH   1  12
ATOM     12  C   UNL d   1       3.973  -0.024  -0.207  0.00  0.00     0.003 C 
ATOM     13  C   UNL d   1       5.033  -0.142   0.594  0.00  0.00    -0.074 C 
ATOM     14  C   UNL d   1       6.417   0.014   0.019  0.00  0.00     0.010 C 
ATOM     15  C   UNL d   1       4.882  -0.472   2.055  0.00  0.00     0.066 C 
ATOM     16  C   UNL d   1       6.655   1.443  -0.434  0.00  0.00     0.015 C 
ATOM     17  C   UNL d   1       7.490  -0.374   1.036  0.00  0.00     0.011 C 
ATOM     18  C   UNL d   1       7.131  -1.700   1.702  0.00  0.00     0.032 C 
ATOM     19  C   UNL d   1       5.805  -1.625   2.477  0.00  0.00     0.122 C 
BRANCH  19  20
ATOM     20  O   UNL d   1       5.128  -2.838   2.356  0.00  0.00    -0.395 OA
ATOM     21  HO  UNL d   1       4.309  -2.792   2.835  1.00  0.00     0.210 HD
ENDBRANCH  19  20
ENDBRANCH   1  12
BRANCH  10  22
ATOM     22  C   UNL d   1      -3.260   1.407  -0.030  0.00  0.00     0.008 C 
ATOM     23  C   UNL d   1      -3.109   2.606   0.895  0.00  0.00     0.014 C 
BRANCH  22  24
ATOM     24  C   UNL d   1      -4.569   0.740   0.241  0.00  0.00    -0.026 C 
ATOM     25  C   UNL d   1      -5.070  -0.155  -0.614  0.00  0.00    -0.026 C 
BRANCH  25  26
ATOM     26  C   UNL d   1      -6.384  -0.848  -0.371  0.00  0.00     0.007 C 
ATOM     27  C   UNL d   1      -6.283  -1.715   0.877  0.00  0.00     0.014 C 
BRANCH  26  28
ATOM     28  C   UNL d   1      -7.556   0.141  -0.277  0.00  0.00    -0.015 C 
ATOM     29  C   UNL d   1      -8.871  -0.594  -0.075  0.00  0.00     0.010 C 
ATOM     30  C   UNL d   1      -7.669   0.971  -1.544  0.00  0.00     0.010 C 
ENDBRANCH  26  28
ENDBRANCH  25  26
ENDBRANCH  22  24
ENDBRANCH  10  22
TORSDOF 6
