REMARK  5 active torsions:
REMARK  status: ('A' for Active; 'I' for Inactive)
REMARK    1  A    between atoms: C_3  and  C_2 
REMARK    2  A    between atoms: C_3  and  C_4 
REMARK    3  A    between atoms: C_3  and  C_16 
REMARK    4  A    between atoms: C_9  and  O_14 
REMARK    5  A    between atoms: C_16  and  C_19 
ROOT
ATOM      1  C   UNL d   1      -0.864  -0.961   0.247  0.00  0.00    -0.032 A 
ATOM      2  C   UNL d   1      -0.101  -1.936   0.901  0.00  0.00     0.012 A 
ATOM      3  C   UNL d   1       1.296  -1.892   0.853  0.00  0.00     0.013 A 
ATOM      4  C   UNL d   1       1.938  -0.872   0.147  0.00  0.00    -0.023 A 
ATOM      5  C   UNL d   1       3.334  -0.822   0.096  0.00  0.00     0.049 A 
ATOM      6  C   UNL d   1       3.978   0.200  -0.611  0.00  0.00     0.069 A 
ATOM      7  C   UNL d   1       3.211   1.177  -1.269  0.00  0.00     0.037 A 
ATOM      8  C   UNL d   1       1.815   1.133  -1.222  0.00  0.00     0.015 A 
ATOM      9  C   UNL d   1       1.174   0.113  -0.516  0.00  0.00    -0.025 A 
ATOM     10  C   UNL d   1      -0.221   0.063  -0.464  0.00  0.00     0.024 A 
ENDROOT
BRANCH   1  11
ATOM     11  C   UNL d   1      -2.366  -1.041   0.324  0.00  0.00    -0.052 C 
BRANCH  11  12
ATOM     12  C   UNL d   1      -3.045  -1.410  -1.004  0.00  0.00     0.032 C 
ATOM     13  C   UNL d   1      -2.886  -0.343  -2.074  0.00  0.00     0.010 C 
ENDBRANCH  11  12
BRANCH  11  14
ATOM     14  C   UNL d   1      -3.074   0.021   1.204  0.00  0.00     0.065 C 
ATOM     15  C   UNL d   1      -2.468   0.003   2.601  0.00  0.00     0.031 C 
ATOM     16  C   UNL d   1      -4.541  -0.356   1.373  0.00  0.00     0.031 C 
BRANCH  14  17
ATOM     17  C   UNL d   1      -2.962   1.413   0.627  0.00  0.00     0.185 C 
ATOM     18  O   UNL d   1      -3.827   1.845  -0.182  0.00  0.00    -0.647 OA
ATOM     19  O   UNL d   1      -1.878   2.224   0.948  0.00  0.00    -0.647 OA
ENDBRANCH  14  17
ENDBRANCH  11  14
ENDBRANCH   1  11
BRANCH   6  20
ATOM     20  O   UNL d   1       5.375   0.222  -0.643  0.00  0.00    -0.356 OA
ATOM     21  C   UNL d   1       6.112   1.220  -1.335  0.00  0.00     0.210 C 
ENDBRANCH   6  20
TORSDOF 5
