REMARK  1 active torsions:
REMARK  status: ('A' for Active; 'I' for Inactive)
REMARK    1  A    between atoms: O_2  and  C_3 
ROOT
ATOM      1  C   UNL d   1      -0.492   0.985   0.102  0.00  0.00     0.138 A 
ATOM      2  C   UNL d   1       0.613   0.100   0.241  0.00  0.00     0.126 A 
ATOM      3  C   UNL d   1       0.489  -1.259  -0.180  0.00  0.00     0.002 A 
ATOM      4  C   UNL d   1       1.582  -2.109  -0.035  0.00  0.00     0.020 A 
ATOM      5  C   UNL d   1       2.764  -1.617   0.513  0.00  0.00     0.083 A 
ATOM      6  C   UNL d   1       2.823  -0.278   0.906  0.00  0.00     0.288 A 
ATOM      7  O   UNL d   1       3.885   0.178   1.403  0.00  0.00    -0.260 OA
ATOM      8  O   UNL d   1       1.767   0.518   0.760  0.00  0.00    -0.272 OA
ATOM      9  C   UNL d   1      -0.709  -1.738  -0.731  0.00  0.00     0.028 A 
ATOM     10  C   UNL d   1      -1.764  -0.841  -0.849  0.00  0.00     0.003 A 
ATOM     11  C   UNL d   1      -1.661   0.460  -0.451  0.00  0.00     0.121 A 
ATOM     12  O   UNL d   1      -2.789   1.082  -0.671  0.00  0.00    -0.319 OA
ATOM     13  C   UNL d   1      -3.636   0.220  -1.206  0.00  0.00     0.143 A 
ATOM     14  C   UNL d   1      -3.034  -1.033  -1.345  0.00  0.00     0.039 A 
ENDROOT
BRANCH   1  15
ATOM     15  O   UNL d   1      -0.477   2.335   0.483  0.00  0.00    -0.351 OA
ATOM     16  C   UNL d   1       0.641   2.996   1.057  0.00  0.00     0.210 C 
ENDBRANCH   1  15
TORSDOF 1
