REMARK  7 active torsions:
REMARK  status: ('A' for Active; 'I' for Inactive)
REMARK    1  A    between atoms: C_2  and  C_3 
REMARK    2  A    between atoms: C_3  and  C_4 
REMARK    3  A    between atoms: C_4  and  C_5 
REMARK    4  A    between atoms: C_5  and  C_6 
REMARK    5  A    between atoms: C_6  and  C_7 
REMARK    6  A    between atoms: C_7  and  C_10 
REMARK    7  A    between atoms: C_12  and  O_27 
ROOT
ATOM      1  C   UNL d   1       1.307  -1.241  -0.230  0.00  0.00    -0.045 A 
ATOM      2  C   UNL d   1       0.867  -1.472   1.083  0.00  0.00     0.045 A 
ATOM      3  C   UNL d   1      -0.362  -0.978   1.526  0.00  0.00     0.075 A 
ATOM      4  C   UNL d   1      -1.176  -0.233   0.656  0.00  0.00     0.013 A 
ATOM      5  C   UNL d   1      -0.734   0.022  -0.655  0.00  0.00     0.079 A 
ATOM      6  C   UNL d   1       0.499  -0.473  -1.084  0.00  0.00     0.045 A 
ATOM      7  O   UNL d   1      -1.498   0.797  -1.533  0.00  0.00    -0.340 OA
ATOM      8  C   UNL d   1      -2.844   1.191  -1.266  0.00  0.00     0.065 C 
ATOM      9  C   UNL d   1      -3.040   1.457   0.244  0.00  0.00     0.029 C 
ATOM     10  C   UNL d   1      -2.501   0.304   1.128  0.00  0.00     0.038 C 
ATOM     11  C   UNL d   1      -3.526  -0.818   1.321  0.00  0.00     0.088 C 
ATOM     12  C   UNL d   1      -4.835  -0.255   1.792  0.00  0.00     0.127 C 
ATOM     13  O   UNL d   1      -5.732  -1.007   2.136  0.00  0.00    -0.298 OA
ATOM     14  C   UNL d   1      -5.035   1.229   1.859  0.00  0.00     0.079 C 
ATOM     15  C   UNL d   1      -4.491   1.875   0.585  0.00  0.00     0.015 C 
ATOM     16  C   UNL d   1      -3.125   2.459  -2.050  0.00  0.00     0.046 C 
ATOM     17  C   UNL d   1      -3.783   0.101  -1.766  0.00  0.00     0.046 C 
ENDROOT
BRANCH   1  18
ATOM     18  C   UNL d   1       2.671  -1.748  -0.674  0.00  0.00    -0.020 C 
ATOM     19  C   UNL d   1       2.870  -1.638  -2.183  0.00  0.00     0.020 C 
ATOM     20  C   UNL d   1       2.802  -3.221  -0.327  0.00  0.00     0.020 C 
BRANCH  18  21
ATOM     21  C   UNL d   1       3.794  -0.997   0.056  0.00  0.00     0.013 C 
BRANCH  21  22
ATOM     22  C   UNL d   1       3.739   0.523  -0.111  0.00  0.00     0.001 C 
BRANCH  22  23
ATOM     23  C   UNL d   1       4.431   0.974  -1.390  0.00  0.00     0.000 C 
BRANCH  23  24
ATOM     24  C   UNL d   1       5.941   0.833  -1.282  0.00  0.00    -0.000 C 
BRANCH  24  25
ATOM     25  C   UNL d   1       6.512   1.917  -0.386  0.00  0.00    -0.005 C 
ATOM     26  C   UNL d   1       8.013   1.749  -0.285  0.00  0.00     0.005 C 
ENDBRANCH  24  25
ENDBRANCH  23  24
ENDBRANCH  22  23
ENDBRANCH  21  22
ENDBRANCH  18  21
ENDBRANCH   1  18
BRANCH   3  27
ATOM     27  O   UNL d   1      -0.762  -1.227   2.834  0.00  0.00    -0.360 OA
ATOM     28  HO  UNL d   1      -1.598  -0.891   3.135  1.00  0.00     0.217 HD
ENDBRANCH   3  27
TORSDOF 7
