REMARK  5 active torsions:
REMARK  status: ('A' for Active; 'I' for Inactive)
REMARK    1  A    between atoms: C_3  and  C_4 
REMARK    2  A    between atoms: C_3  and  C_15 
REMARK    3  A    between atoms: C_4  and  C_7 
REMARK    4  A    between atoms: C_10  and  O_11 
REMARK    5  A    between atoms: C_18  and  O_19 
ROOT
ATOM      1  C   UNL d   1       0.867   0.192   3.045  0.00  0.00     0.037 C 
ATOM      2  C   UNL d   1       0.015   0.039   1.827  0.00  0.00    -0.018 C 
ATOM      3  C   UNL d   1       0.482   0.061   0.569  0.00  0.00    -0.019 C 
ENDROOT
BRANCH   3   4
ATOM      4  C   UNL d   1      -0.482  -0.061  -0.569  0.00  0.00    -0.019 C 
ATOM      5  C   UNL d   1      -0.015  -0.039  -1.827  0.00  0.00    -0.018 C 
ATOM      6  C   UNL d   1      -0.867  -0.192  -3.045  0.00  0.00     0.037 C 
BRANCH   4   7
ATOM      7  C   UNL d   1      -1.934  -0.236  -0.311  0.00  0.00    -0.025 A 
ATOM      8  C   UNL d   1      -2.391  -1.324   0.447  0.00  0.00     0.015 A 
ATOM      9  C   UNL d   1      -3.757  -1.488   0.695  0.00  0.00     0.037 A 
ATOM     10  C   UNL d   1      -4.675  -0.565   0.187  0.00  0.00     0.065 A 
ATOM     11  C   UNL d   1      -4.228   0.522  -0.569  0.00  0.00     0.037 A 
ATOM     12  C   UNL d   1      -2.862   0.687  -0.817  0.00  0.00     0.015 A 
BRANCH  10  13
ATOM     13  O   UNL d   1      -6.031  -0.728   0.432  0.00  0.00    -0.361 OA
ATOM     14  HO  UNL d   1      -6.655  -0.101   0.087  1.00  0.00     0.217 HD
ENDBRANCH  10  13
ENDBRANCH   4   7
ENDBRANCH   3   4
BRANCH   3  15
ATOM     15  C   UNL d   1       1.934   0.236   0.311  0.00  0.00    -0.025 A 
ATOM     16  C   UNL d   1       2.862  -0.687   0.817  0.00  0.00     0.015 A 
ATOM     17  C   UNL d   1       4.228  -0.522   0.569  0.00  0.00     0.037 A 
ATOM     18  C   UNL d   1       4.675   0.565  -0.187  0.00  0.00     0.065 A 
ATOM     19  C   UNL d   1       3.757   1.488  -0.695  0.00  0.00     0.037 A 
ATOM     20  C   UNL d   1       2.391   1.324  -0.447  0.00  0.00     0.015 A 
BRANCH  18  21
ATOM     21  O   UNL d   1       6.031   0.728  -0.432  0.00  0.00    -0.361 OA
ATOM     22  HO  UNL d   1       6.335   1.467  -0.946  1.00  0.00     0.217 HD
ENDBRANCH  18  21
ENDBRANCH   3  15
TORSDOF 5
