REMARK  4 active torsions:
REMARK  status: ('A' for Active; 'I' for Inactive)
REMARK    1  A    between atoms: C_8  and  N_9 
REMARK    2  A    between atoms: C_14  and  O_20 
REMARK    3  A    between atoms: C_15  and  C_17 
REMARK    4  A    between atoms: C_17  and  O_18 
ROOT
ATOM      1  C   UNL d   1       0.516  -0.178  -1.326  0.00  0.00     0.263 A 
ATOM      2  C   UNL d   1       0.839   1.240  -0.810  0.00  0.00     0.212 A 
ATOM      3  O   UNL d   1      -0.323   1.652  -0.088  0.00  0.00    -0.309 OA
ATOM      4  C   UNL d   1      -1.267   0.656  -0.181  0.00  0.00     0.230 A 
ATOM      5  N   UNL d   1      -0.847  -0.402  -0.878  0.00  0.00    -0.293 N 
ATOM      6  C   UNL d   1      -1.635  -1.485  -1.089  0.00  0.00     0.101 A 
ATOM      7  C   UNL d   1      -2.927  -1.482  -0.550  0.00  0.00     0.065 A 
ATOM      8  C   UNL d   1      -3.348  -0.360   0.184  0.00  0.00     0.102 A 
ATOM      9  N   UNL d   1      -2.509   0.701   0.360  0.00  0.00    -0.308 N 
ATOM     10  HN  UNL d   1      -2.812   1.518   0.892  1.00  0.00     0.171 HD
ATOM     11  C   UNL d   1       1.982   1.031   0.131  0.00  0.00     0.183 C 
ATOM     12  C   UNL d   1       2.458  -0.365  -0.199  0.00  0.00     0.179 C 
ATOM     13  O   UNL d   1       1.375  -1.103  -0.703  0.00  0.00    -0.353 OA
ENDROOT
BRANCH   8  14
ATOM     14  N   UNL d   1      -4.534  -0.333   0.692  0.00  0.00    -0.385 N 
ATOM     15  HN2 UNL d   1      -5.161  -1.126   0.561  1.00  0.00     0.157 HD
ATOM     16  HN1 UNL d   1      -4.839   0.482   1.225  1.00  0.00     0.157 HD
ENDBRANCH   8  14
BRANCH  11  17
ATOM     17  O   UNL d   1       2.992   1.953  -0.142  0.00  0.00    -0.390 OA
ATOM     18  HO  UNL d   1       3.718   1.820   0.456  1.00  0.00     0.210 HD
ENDBRANCH  11  17
BRANCH  12  19
ATOM     19  C   UNL d   1       3.005  -1.049   1.042  0.00  0.00     0.198 C 
BRANCH  19  20
ATOM     20  O   UNL d   1       4.225  -0.476   1.405  0.00  0.00    -0.398 OA
ATOM     21  HO  UNL d   1       4.567  -0.904   2.181  1.00  0.00     0.209 HD
ENDBRANCH  19  20
ENDBRANCH  12  19
TORSDOF 4
