REMARK  4 active torsions:
REMARK  status: ('A' for Active; 'I' for Inactive)
REMARK    1  A    between atoms: C_3  and  C_16 
REMARK    2  A    between atoms: C_4  and  C_8 
REMARK       I    between atoms: C_16  and  N_18 
REMARK    3  A    between atoms: CA_20  and  N_18 
REMARK    4  A    between atoms: CA_25  and  C_30 
ROOT
ATOM      1  C   UNL d   1      -0.842   0.365  -0.377  0.00  0.00     0.257 C 
ATOM      2  O   UNL d   1      -1.467   1.348   0.105  0.00  0.00    -0.267 OA
ATOM      3  N   UNL d   1       0.541   0.495  -0.709  0.00  0.00    -0.342 N 
ATOM      4  HN  UNL d   1       1.016  -0.295  -1.147  1.00  0.00     0.163 HD
ENDROOT
BRANCH   1   5
ATOM      5  C   UNL d   1      -1.540  -0.916  -0.608  0.00  0.00     0.092 A 
ATOM      6  C   UNL d   1      -1.105  -2.000  -1.349  0.00  0.00     0.090 A 
ATOM      7  C   UNL d   1       0.200  -2.151  -2.050  0.00  0.00     0.080 C 
ATOM      8  O   UNL d   1      -2.048  -2.911  -1.361  0.00  0.00    -0.241 OA
ATOM      9  N   UNL d   1      -3.088  -2.523  -0.681  0.00  0.00    -0.259 N 
ATOM     10  C   UNL d   1      -2.812  -1.295  -0.199  0.00  0.00     0.088 A 
ATOM     11  HN  UNL d   1      -3.950  -3.049  -0.540  1.00  0.00     0.195 HD
BRANCH  10  12
ATOM     12  C   UNL d   1      -3.739  -0.541   0.669  0.00  0.00     0.054 A 
ATOM     13  C   UNL d   1      -5.051  -0.246   0.242  0.00  0.00     0.049 A 
ATOM     14  C   UNL d   1      -5.920   0.452   1.086  0.00  0.00     0.025 A 
ATOM     15 CL   UNL d   1      -5.633  -0.695  -1.356  0.00  0.00    -0.083 Cl
ATOM     16  C   UNL d   1      -5.502   0.849   2.357  0.00  0.00     0.005 A 
ATOM     17  C   UNL d   1      -4.211   0.549   2.792  0.00  0.00     0.043 A 
ATOM     18  C   UNL d   1      -3.331  -0.145   1.957  0.00  0.00     0.130 A 
ATOM     19  F   UNL d   1      -2.092  -0.449   2.418  0.00  0.00    -0.205 F 
ENDBRANCH  10  12
ENDBRANCH   1   5
BRANCH   3  20
ATOM     20  CA  UNL d   1       1.303   1.712  -0.447  0.00  0.00     0.199 A 
ATOM     21  C   UNL d   1       1.744   1.735   0.983  0.00  0.00     0.227 A 
ATOM     22  N   UNL d   1       3.138   1.501   0.551  0.00  0.00    -0.219 NA
ATOM     23  O   UNL d   1       1.160   1.831   2.094  0.00  0.00    -0.277 OA
ATOM     24  C   UNL d   1       2.699   1.593  -0.808  0.00  0.00     0.160 A 
ATOM     25  CA  UNL d   1       4.148   0.573   0.984  0.00  0.00     0.186 C 
ATOM     26  S   UNL d   1       3.264   0.028  -1.585  0.00  0.00    -0.135 SA
ATOM     27  C   UNL d   1       4.038  -0.593  -0.025  0.00  0.00     0.029 C 
ATOM     28  C   UNL d   1       3.120  -1.644   0.568  0.00  0.00     0.029 C 
ATOM     29  C   UNL d   1       5.368  -1.263  -0.342  0.00  0.00     0.029 C 
BRANCH  25  30
ATOM     30  C   UNL d   1       5.484   1.261   0.995  0.00  0.00     0.193 C 
ATOM     31  O   UNL d   1       5.895   1.887  -0.018  0.00  0.00    -0.647 OA
ATOM     32  OXT UNL d   1       6.279   1.193   2.131  0.00  0.00    -0.647 OA
ENDBRANCH  25  30
ENDBRANCH   3  20
TORSDOF 4
