REMARK  16 active torsions:
REMARK  status: ('A' for Active; 'I' for Inactive)
REMARK    1  A    between atoms: N_2  and  C_5 
REMARK    2  A    between atoms: C_5  and  C_6 
REMARK    3  A    between atoms: C_6  and  O_8 
REMARK    4  A    between atoms: O_8  and  C_9 
REMARK    5  A    between atoms: C_9  and  C_10 
REMARK    6  A    between atoms: C_16  and  N_17 
REMARK       I    between atoms: N_17  and  C_19 
REMARK    7  A    between atoms: C_19  and  O_21 
REMARK    8  A    between atoms: O_21  and  C_22 
REMARK    9  A    between atoms: C_22  and  N_24 
REMARK   10  A    between atoms: N_28  and  C_29 
REMARK   11  A    between atoms: C_30  and  C_29 
REMARK   12  A    between atoms: C_30  and  O_31 
REMARK   13  A    between atoms: C_30  and  C_33 
REMARK   14  A    between atoms: C_30  and  C_49 
REMARK   15  A    between atoms: C_33  and  C_35 
REMARK   16  A    between atoms: C_38  and  C_41 
ROOT
ATOM      1  C   UNL d   1      -7.662   0.254   0.202  0.00  0.00    -0.009 A 
ATOM      2  C   UNL d   1      -8.899   0.416  -0.441  0.00  0.00     0.015 A 
ATOM      3  C   UNL d   1      -9.694   1.535  -0.175  0.00  0.00     0.023 A 
ATOM      4  C   UNL d   1      -9.258   2.501   0.736  0.00  0.00     0.044 A 
ATOM      5  C   UNL d   1      -8.027   2.348   1.381  0.00  0.00     0.023 A 
ATOM      6  C   UNL d   1      -7.232   1.230   1.114  0.00  0.00     0.015 A 
ATOM      7  C   UNL d   1     -10.075   3.648   1.012  0.00  0.00     0.099 C 
ATOM      8  N   UNL d   1     -10.733   4.574   1.234  0.00  0.00    -0.191 NA
ENDROOT
BRANCH   1   9
ATOM      9  C   UNL d   1      -6.815  -0.922  -0.075  0.00  0.00     0.049 A 
ATOM     10  N   UNL d   1      -5.609  -1.089   0.535  0.00  0.00    -0.352 N 
ATOM     11  C   UNL d   1      -4.989  -2.217   0.135  0.00  0.00     0.058 A 
ATOM     12  HN  UNL d   1      -5.220  -0.436   1.216  1.00  0.00     0.166 HD
ATOM     13  S   UNL d   1      -5.910  -3.037  -0.998  0.00  0.00    -0.086 SA
ATOM     14  C   UNL d   1      -7.174  -1.923  -0.984  0.00  0.00     0.081 A 
BRANCH  11  15
ATOM     15  C   UNL d   1      -3.617  -2.625   0.580  0.00  0.00     0.080 C 
ATOM     16  C   UNL d   1      -3.523  -2.619   2.101  0.00  0.00     0.020 C 
BRANCH  15  17
ATOM     17  C   UNL d   1      -2.485  -1.847  -0.138  0.00  0.00     0.115 C 
BRANCH  17  18
ATOM     18  C   UNL d   1      -1.124  -2.393   0.324  0.00  0.00     0.193 C 
BRANCH  18  19
ATOM     19  N   UNL d   1      -0.023  -1.819  -0.439  0.00  0.00    -0.283 N 
ATOM     20  N   UNL d   1       0.407  -2.287  -1.599  0.00  0.00    -0.293 N 
ATOM     21  C   UNL d   1       1.417  -1.480  -1.981  0.00  0.00     0.203 A 
ATOM     22  HN  UNL d   1       0.046  -3.097  -2.103  1.00  0.00     0.188 HD
ATOM     23  N   UNL d   1       1.603  -0.507  -1.064  0.00  0.00    -0.309 N 
ATOM     24  C   UNL d   1       0.700  -0.740  -0.098  0.00  0.00     0.206 A 
BRANCH  23  25
ATOM     25  C   UNL d   1       2.621   0.540  -1.044  0.00  0.00     0.236 C 
ATOM     26  C   UNL d   1       2.934   1.069  -2.438  0.00  0.00     0.064 C 
BRANCH  25  27
ATOM     27  O   UNL d   1       3.797   0.104  -0.359  0.00  0.00    -0.278 OA
BRANCH  27  28
ATOM     28  C   UNL d   1       4.649  -0.916  -0.807  0.00  0.00     0.370 C 
ATOM     29  N   UNL d   1       5.778  -1.304  -0.009  0.00  0.00    -0.283 N 
ATOM     30  C   UNL d   1       6.482  -2.542  -0.312  0.00  0.00     0.163 C 
ATOM     31  O   UNL d   1       4.425  -1.500  -1.903  0.00  0.00    -0.238 OA
BRANCH  29  32
ATOM     32  C   UNL d   1       6.140  -0.583   1.179  0.00  0.00     0.119 A 
ATOM     33  N   UNL d   1       6.227  -1.253   2.362  0.00  0.00    -0.352 N 
ATOM     34  C   UNL d   1       6.572  -0.630   3.521  0.00  0.00     0.089 A 
ATOM     35  HN  UNL d   1       6.028  -2.253   2.380  1.00  0.00     0.166 HD
ATOM     36  C   UNL d   1       6.860   0.734   3.523  0.00  0.00     0.018 A 
ATOM     37  C   UNL d   1       6.797   1.445   2.325  0.00  0.00     0.014 A 
ATOM     38  C   UNL d   1       6.438   0.796   1.141  0.00  0.00     0.010 A 
BRANCH  38  39
ATOM     39  C   UNL d   1       6.450   1.576  -0.136  0.00  0.00     0.221 C 
BRANCH  39  40
ATOM     40  O   UNL d   1       7.532   1.160  -0.963  0.00  0.00    -0.315 OA
BRANCH  40  41
ATOM     41  C   UNL d   1       8.851   1.559  -0.731  0.00  0.00     0.284 C 
ATOM     42  O   UNL d   1       9.132   2.362   0.199  0.00  0.00    -0.263 OA
BRANCH  41  43
ATOM     43  C   UNL d   1       9.942   1.002  -1.574  0.00  0.00     0.342 C 
BRANCH  43  44
ATOM     44  N   UNL d   1      10.398  -0.257  -1.011  0.00  0.00    -0.070 N 
ATOM     45  C   UNL d   1      11.517  -0.697  -1.825  0.00  0.00     0.267 C 
ATOM     46  HN2 UNL d   1       9.659  -0.955  -0.933  1.00  0.00     0.277 HD
ATOM     47  HN1 UNL d   1      10.622  -0.196  -0.018  1.00  0.00     0.277 HD
ENDBRANCH  43  44
ENDBRANCH  41  43
ENDBRANCH  40  41
ENDBRANCH  39  40
ENDBRANCH  38  39
ENDBRANCH  29  32
ENDBRANCH  27  28
ENDBRANCH  25  27
ENDBRANCH  23  25
ENDBRANCH  18  19
ENDBRANCH  17  18
BRANCH  17  48
ATOM     48  O   UNL d   1      -2.596  -2.115  -1.508  0.00  0.00    -0.382 OA
ATOM     49  HO  UNL d   1      -3.438  -1.778  -1.794  1.00  0.00     0.211 HD
ENDBRANCH  17  48
BRANCH  17  50
ATOM     50  C   UNL d   1      -2.598  -0.340   0.102  0.00  0.00     0.020 A 
ATOM     51  C   UNL d   1      -3.188   0.468  -0.888  0.00  0.00     0.055 A 
ATOM     52  C   UNL d   1      -3.361   1.839  -0.690  0.00  0.00     0.117 A 
ATOM     53  F   UNL d   1      -3.930   2.596  -1.657  0.00  0.00    -0.206 F 
ATOM     54  C   UNL d   1      -2.953   2.426   0.507  0.00  0.00     0.045 A 
ATOM     55  C   UNL d   1      -2.373   1.643   1.505  0.00  0.00     0.046 A 
ATOM     56  C   UNL d   1      -2.197   0.269   1.314  0.00  0.00     0.126 A 
ATOM     57  F   UNL d   1      -1.626  -0.450   2.312  0.00  0.00    -0.205 F 
ENDBRANCH  17  50
ENDBRANCH  15  17
ENDBRANCH  11  15
ENDBRANCH   1   9
TORSDOF 16
