REMARK  4 active torsions:
REMARK  status: ('A' for Active; 'I' for Inactive)
REMARK    1  A    between atoms: O_1  and  C_2 
REMARK    2  A    between atoms: O_1  and  C_9 
REMARK    3  A    between atoms: C_2  and  C_3 
REMARK    4  A    between atoms: C_3  and  N_4 
ROOT
ATOM      1  C   UNL d   1       0.363   0.020  -1.433  0.00  0.00     0.155 C 
ATOM      2  C   UNL d   1       0.519   1.519  -1.650  0.00  0.00     0.042 C 
ENDROOT
BRANCH   1   3
ATOM      3  O   UNL d   1       1.361  -0.578  -0.599  0.00  0.00    -0.300 OA
BRANCH   3   4
ATOM      4  C   UNL d   1       1.853  -0.037   0.596  0.00  0.00     0.373 C 
ATOM      5  O   UNL d   1       1.444   1.072   1.031  0.00  0.00    -0.242 OA
ATOM      6  N   UNL d   1       2.837  -0.754   1.332  0.00  0.00    -0.032 NA
ENDBRANCH   3   4
ENDBRANCH   1   3
BRANCH   1   7
ATOM      7  C   UNL d   1      -1.079  -0.472  -1.192  0.00  0.00     0.268 C 
BRANCH   7   8
ATOM      8  N   UNL d   1      -1.650  -0.238   0.141  0.00  0.00    -0.076 N 
ATOM      9  C   UNL d   1      -1.028  -1.095   1.137  0.00  0.00     0.271 C 
ATOM     10  C   UNL d   1      -1.563   1.154   0.554  0.00  0.00     0.271 C 
ATOM     11  C   UNL d   1      -3.057  -0.590   0.082  0.00  0.00     0.271 C 
ENDBRANCH   7   8
ENDBRANCH   1   7
TORSDOF 4
