REMARK  7 active torsions:
REMARK  status: ('A' for Active; 'I' for Inactive)
REMARK    1  A    between atoms: N_5  and  C_6 
REMARK    2  A    between atoms: C_7  and  C_6 
REMARK    3  A    between atoms: C_7  and  C_8 
REMARK    4  A    between atoms: C_7  and  O_11 
REMARK    5  A    between atoms: C_8  and  O_9 
REMARK    6  A    between atoms: O_11  and  C_12 
REMARK    7  A    between atoms: C_12  and  P_13 
ROOT
ATOM      1  C   UNL d   1      -0.086  -0.971  -0.690  0.00  0.00     0.167 C 
ENDROOT
BRANCH   1   2
ATOM      2  N   UNL d   1      -1.401  -0.432  -0.363  0.00  0.00    -0.307 N 
ATOM      3  C   UNL d   1      -2.420  -1.303  -0.128  0.00  0.00     0.099 A 
ATOM      4  C   UNL d   1      -3.691  -0.831   0.195  0.00  0.00     0.062 A 
ATOM      5  C   UNL d   1      -3.885   0.546   0.268  0.00  0.00     0.121 A 
ATOM      6  N   UNL d   1      -5.168   1.067   0.595  0.00  0.00    -0.083 NA
ATOM      7  N   UNL d   1      -2.850   1.391   0.028  0.00  0.00    -0.297 N 
ATOM      8  C   UNL d   1      -1.616   0.917  -0.286  0.00  0.00     0.327 A 
ATOM      9  HN  UNL d   1      -3.002   2.398   0.083  1.00  0.00     0.171 HD
ATOM     10  O   UNL d   1      -0.678   1.730  -0.504  0.00  0.00    -0.246 OA
ENDBRANCH   1   2
BRANCH   1  11
ATOM     11  C   UNL d   1       0.802  -1.008   0.546  0.00  0.00     0.164 C 
BRANCH  11  12
ATOM     12  C   UNL d   1       0.432  -2.200   1.414  0.00  0.00     0.197 C 
BRANCH  12  13
ATOM     13  O   UNL d   1       1.122  -2.138   2.624  0.00  0.00    -0.398 OA
ATOM     14  HO  UNL d   1       0.890  -2.883   3.166  1.00  0.00     0.209 HD
ENDBRANCH  12  13
ENDBRANCH  11  12
BRANCH  11  15
ATOM     15  O   UNL d   1       2.139  -1.108   0.153  0.00  0.00    -0.369 OA
BRANCH  15  16
ATOM     16  C   UNL d   1       2.722   0.096   0.553  0.00  0.00     0.313 C 
BRANCH  16  17
ATOM     17  P   UNL d   1       3.485   0.909  -0.878  0.00  0.00     0.283 P 
ATOM     18  O   UNL d   1       2.303   1.225  -2.046  0.00  0.00    -0.638 OA
ATOM     19  O   UNL d   1       4.672  -0.100  -1.535  0.00  0.00    -0.638 OA
ATOM     20  O   UNL d   1       4.117   2.210  -0.438  0.00  0.00    -0.638 OA
ENDBRANCH  16  17
ENDBRANCH  15  16
ENDBRANCH  11  15
ENDBRANCH   1  11
TORSDOF 7
