REMARK  4 active torsions:
REMARK  status: ('A' for Active; 'I' for Inactive)
REMARK    1  A    between atoms: O_2  and  C_3 
REMARK    2  A    between atoms: C_15  and  O_16 
REMARK    3  A    between atoms: C_18  and  O_19 
REMARK    4  A    between atoms: C_43  and  O_44 
ROOT
ATOM      1  C   UNL d   1       4.168   1.315   2.436  0.00  0.00     0.102 A 
ATOM      2  C   UNL d   1       4.537  -0.026   2.646  0.00  0.00     0.040 A 
ATOM      3  C   UNL d   1       3.696  -1.066   2.242  0.00  0.00     0.010 A 
ATOM      4  C   UNL d   1       2.478  -0.777   1.621  0.00  0.00    -0.053 A 
ATOM      5  C   UNL d   1       1.546  -1.873   1.234  0.00  0.00     0.079 C 
ATOM      6  C   UNL d   1       1.787  -2.349  -0.198  0.00  0.00     0.263 C 
ATOM      7  N   UNL d   1       3.004  -3.176  -0.257  0.00  0.00     0.093 N 
ATOM      8  C   UNL d   1       3.446  -3.307  -1.641  0.00  0.00     0.310 C 
ATOM      9  C   UNL d   1       2.792  -4.500   0.345  0.00  0.00     0.277 C 
ATOM     10  C   UNL d   1       1.689  -5.301  -0.353  0.00  0.00     0.069 C 
ATOM     11  C   UNL d   1       0.476  -4.471  -0.633  0.00  0.00    -0.042 A 
ATOM     12  C   UNL d   1      -0.716  -5.119  -0.958  0.00  0.00     0.047 A 
ATOM     13  C   UNL d   1      -1.850  -4.387  -1.335  0.00  0.00     0.104 A 
ATOM     14  C   UNL d   1      -1.773  -2.991  -1.421  0.00  0.00     0.134 A 
ATOM     15  C   UNL d   1      -0.571  -2.325  -1.109  0.00  0.00     0.121 A 
ATOM     16  O   UNL d   1      -0.460  -0.935  -1.247  0.00  0.00    -0.304 OA
ATOM     17  C   UNL d   1      -1.392  -0.004  -0.772  0.00  0.00     0.110 A 
ATOM     18  C   UNL d   1      -1.656   1.126  -1.552  0.00  0.00     0.050 A 
ATOM     19  C   UNL d   1      -2.509   2.137  -1.094  0.00  0.00    -0.016 A 
ATOM     20  C   UNL d   1      -2.706   3.396  -1.929  0.00  0.00     0.260 C 
ATOM     21  C   UNL d   1      -1.439   4.231  -2.213  0.00  0.00     0.079 C 
ATOM     22  C   UNL d   1      -0.319   4.012  -1.246  0.00  0.00    -0.056 A 
ATOM     23  C   UNL d   1       0.710   3.133  -1.591  0.00  0.00     0.010 A 
ATOM     24  C   UNL d   1       1.682   2.791  -0.653  0.00  0.00     0.038 A 
ATOM     25  C   UNL d   1       1.634   3.331   0.640  0.00  0.00     0.076 A 
ATOM     26  O   UNL d   1       2.565   2.939   1.608  0.00  0.00    -0.308 OA
ATOM     27  C   UNL d   1       2.950   1.604   1.801  0.00  0.00     0.109 A 
ATOM     28  C   UNL d   1       2.111   0.550   1.401  0.00  0.00     0.047 A 
ATOM     29  C   UNL d   1       0.637   4.257   0.968  0.00  0.00     0.038 A 
ATOM     30  C   UNL d   1      -0.347   4.589   0.030  0.00  0.00     0.010 A 
ATOM     31  N   UNL d   1      -3.797   4.268  -1.471  0.00  0.00     0.093 N 
ATOM     32  C   UNL d   1      -5.066   3.758  -1.978  0.00  0.00     0.310 C 
ATOM     33  C   UNL d   1      -3.841   4.385  -0.007  0.00  0.00     0.277 C 
ATOM     34  C   UNL d   1      -4.065   3.036   0.678  0.00  0.00     0.069 C 
ATOM     35  C   UNL d   1      -3.108   2.008   0.171  0.00  0.00    -0.045 A 
ATOM     36  C   UNL d   1      -2.871   0.869   0.942  0.00  0.00     0.047 A 
ATOM     37  C   UNL d   1      -2.008  -0.140   0.488  0.00  0.00     0.102 A 
ATOM     38  C   UNL d   1       0.552  -3.068  -0.698  0.00  0.00     0.018 A 
ENDROOT
BRANCH   1  39
ATOM     39  O   UNL d   1       4.993   2.368   2.843  0.00  0.00    -0.353 OA
ATOM     40  C   UNL d   1       6.241   2.161   3.490  0.00  0.00     0.210 C 
ENDBRANCH   1  39
BRANCH  14  41
ATOM     41  O   UNL d   1      -2.886  -2.271  -1.843  0.00  0.00    -0.356 OA
ATOM     42  HO  UNL d   1      -2.833  -1.324  -1.901  1.00  0.00     0.218 HD
ENDBRANCH  14  41
BRANCH  13  43
ATOM     43  O   UNL d   1      -3.055  -5.026  -1.645  0.00  0.00    -0.353 OA
ATOM     44  C   UNL d   1      -3.215  -6.437  -1.587  0.00  0.00     0.210 C 
ENDBRANCH  13  43
BRANCH  37  45
ATOM     45  O   UNL d   1      -1.734  -1.259   1.282  0.00  0.00    -0.353 OA
ATOM     46  C   UNL d   1      -2.309  -1.454   2.567  0.00  0.00     0.210 C 
ENDBRANCH  37  45
TORSDOF 4
