REMARK  6 active torsions:
REMARK  status: ('A' for Active; 'I' for Inactive)
REMARK    1  A    between atoms: C_2  and  C_3 
REMARK    2  A    between atoms: C_3  and  C_4 
REMARK    3  A    between atoms: C_4  and  C_5 
REMARK    4  A    between atoms: C_5  and  O_7 
REMARK    5  A    between atoms: C_8  and  O_7 
REMARK    6  A    between atoms: C_23  and  O_25 
ROOT
ATOM      1  C   UNL d   1       1.764  -0.665  -0.919  0.00  0.00     0.140 C 
ATOM      2  C   UNL d   1       1.623   0.430  -1.963  0.00  0.00     0.034 C 
ATOM      3  C   UNL d   1       0.947   1.602  -1.275  0.00  0.00     0.008 C 
ATOM      4  C   UNL d   1       0.318   1.063   0.001  0.00  0.00     0.001 C 
ATOM      5  C   UNL d   1       0.597  -0.449   0.048  0.00  0.00    -0.013 C 
ATOM      6  C   UNL d   1      -0.590  -1.314  -0.405  0.00  0.00     0.013 C 
ATOM      7  C   UNL d   1      -1.472  -0.595  -1.418  0.00  0.00     0.010 C 
ATOM      8  C   UNL d   1      -2.144   0.615  -0.767  0.00  0.00     0.023 C 
ATOM      9  C   UNL d   1      -1.162   1.468   0.097  0.00  0.00    -0.001 C 
ATOM     10  C   UNL d   1      -1.580   1.685   1.557  0.00  0.00     0.010 C 
ATOM     11  C   UNL d   1      -2.216   0.436   2.153  0.00  0.00     0.039 C 
ATOM     12  C   UNL d   1      -3.426   0.080   1.355  0.00  0.00    -0.049 A 
ATOM     13  C   UNL d   1      -3.400   0.189  -0.047  0.00  0.00    -0.047 A 
ATOM     14  C   UNL d   1      -4.544  -0.138  -0.786  0.00  0.00     0.011 A 
ATOM     15  C   UNL d   1      -5.702  -0.571  -0.134  0.00  0.00     0.037 A 
ATOM     16  C   UNL d   1      -5.721  -0.685   1.259  0.00  0.00     0.066 A 
ATOM     17  C   UNL d   1      -4.583  -0.361   2.003  0.00  0.00     0.044 A 
ATOM     18  C   UNL d   1       0.952  -0.862   1.470  0.00  0.00     0.018 C 
ENDROOT
BRANCH   1  19
ATOM     19  O   UNL d   1       3.022  -0.521  -0.260  0.00  0.00    -0.315 OA
BRANCH  19  20
ATOM     20  C   UNL d   1       4.222  -0.939  -0.839  0.00  0.00     0.259 C 
ATOM     21  O   UNL d   1       4.237  -1.485  -1.974  0.00  0.00    -0.265 OA
BRANCH  20  22
ATOM     22  C   UNL d   1       5.501  -0.709  -0.117  0.00  0.00     0.111 C 
BRANCH  22  23
ATOM     23  C   UNL d   1       5.972   0.716  -0.347  0.00  0.00     0.009 C 
BRANCH  23  24
ATOM     24  C   UNL d   1       7.264   0.976   0.405  0.00  0.00    -0.004 C 
ATOM     25  C   UNL d   1       6.989   1.151   1.887  0.00  0.00     0.005 C 
ENDBRANCH  23  24
ENDBRANCH  22  23
ENDBRANCH  20  22
ENDBRANCH  19  20
ENDBRANCH   1  19
BRANCH  16  26
ATOM     26  O   UNL d   1      -6.870  -1.120   1.904  0.00  0.00    -0.361 OA
ATOM     27  HO  UNL d   1      -6.883  -1.198   2.851  1.00  0.00     0.217 HD
ENDBRANCH  16  26
TORSDOF 6
