REMARK  5 active torsions:
REMARK  status: ('A' for Active; 'I' for Inactive)
REMARK    1  A    between atoms: C_2  and  C_3 
REMARK    2  A    between atoms: C_11  and  C_12 
REMARK    3  A    between atoms: C_12  and  C_16 
REMARK    4  A    between atoms: C_13  and  O_14 
REMARK    5  A    between atoms: C_16  and  O_18 
ROOT
ATOM      1  C   UNL d   1      -1.981  -1.020  -0.684  0.00  0.00     0.022 C 
ATOM      2  C   UNL d   1      -1.976  -1.190   0.842  0.00  0.00     0.278 C 
ATOM      3  N   UNL d   1      -0.919  -2.103   1.281  0.00  0.00     0.095 N 
ATOM      4  C   UNL d   1      -1.033  -2.205   2.736  0.00  0.00     0.274 C 
ATOM      5  C   UNL d   1       0.075  -1.391   3.396  0.00  0.00     0.056 C 
ATOM      6  C   UNL d   1       0.858  -0.773   2.265  0.00  0.00     0.103 A 
ATOM      7  C   UNL d   1       0.412  -1.529   1.021  0.00  0.00     0.246 C 
ATOM      8  C   UNL d   1       0.538  -0.752  -0.303  0.00  0.00     0.047 C 
ATOM      9  C   UNL d   1      -0.560  -1.171  -1.274  0.00  0.00     0.034 C 
ATOM     10  C   UNL d   1       2.341  -0.850   2.485  0.00  0.00     0.237 A 
ATOM     11  O   UNL d   1       2.980  -1.928   2.613  0.00  0.00    -0.272 OA
ATOM     12  N   UNL d   1       2.977   0.426   2.535  0.00  0.00    -0.326 N 
ATOM     13  HN  UNL d   1       3.967   0.633   2.666  1.00  0.00     0.169 HD
ATOM     14  C   UNL d   1       1.905   1.340   2.361  0.00  0.00     0.042 A 
ATOM     15  C   UNL d   1       2.022   2.729   2.330  0.00  0.00     0.030 A 
ATOM     16  C   UNL d   1       0.856   3.489   2.146  0.00  0.00     0.002 A 
ATOM     17  C   UNL d   1      -0.393   2.857   1.999  0.00  0.00     0.001 A 
ATOM     18  C   UNL d   1      -0.488   1.457   2.033  0.00  0.00     0.011 A 
ATOM     19  C   UNL d   1       0.682   0.716   2.214  0.00  0.00    -0.011 A 
ENDROOT
BRANCH   9  20
ATOM     20  C   UNL d   1      -0.372  -0.632  -2.668  0.00  0.00     0.043 C 
ATOM     21  C   UNL d   1      -0.518  -1.509  -3.666  0.00  0.00     0.147 C 
BRANCH  21  22
ATOM     22  O   UNL d   1      -0.390  -1.157  -5.005  0.00  0.00    -0.367 OA
ATOM     23  C   UNL d   1      -0.562  -2.135  -6.014  0.00  0.00     0.208 C 
ENDBRANCH  21  22
BRANCH  20  24
ATOM     24  C   UNL d   1      -0.073   0.808  -2.899  0.00  0.00     0.291 C 
ATOM     25  O   UNL d   1       0.109   1.249  -4.067  0.00  0.00    -0.260 OA
BRANCH  24  26
ATOM     26  O   UNL d   1       0.008   1.678  -1.809  0.00  0.00    -0.323 OA
ATOM     27  C   UNL d   1       0.280   3.062  -1.967  0.00  0.00     0.213 C 
ENDBRANCH  24  26
ENDBRANCH  20  24
ENDBRANCH   9  20
BRANCH   1  28
ATOM     28  C   UNL d   1      -2.637   0.312  -1.030  0.00  0.00     0.002 C 
ATOM     29  C   UNL d   1      -4.142   0.222  -0.868  0.00  0.00     0.005 C 
ENDBRANCH   1  28
TORSDOF 5
