REMARK  2 active torsions:
REMARK  status: ('A' for Active; 'I' for Inactive)
REMARK    1  A    between atoms: C_2  and  N_19 
REMARK    2  A    between atoms: C_9  and  C_15 
ROOT
ATOM      1  C   UNL d   1      -3.240  -0.326   0.823  0.00  0.00     0.190 C 
ATOM      2  C   UNL d   1      -3.598  -1.096  -0.464  0.00  0.00     0.039 C 
ATOM      3  C   UNL d   1      -2.519  -2.132  -0.811  0.00  0.00     0.059 C 
ATOM      4  C   UNL d   1      -1.156  -1.521  -0.722  0.00  0.00     0.017 A 
ATOM      5  C   UNL d   1      -0.883  -0.390   0.029  0.00  0.00    -0.021 A 
ATOM      6  C   UNL d   1       0.464  -0.182  -0.097  0.00  0.00    -0.000 A 
ATOM      7  C   UNL d   1       1.290   0.817   0.410  0.00  0.00     0.031 A 
ATOM      8  C   UNL d   1       2.665   0.754   0.099  0.00  0.00     0.030 A 
ATOM      9  C   UNL d   1       3.156  -0.302  -0.707  0.00  0.00     0.019 A 
ATOM     10  C   UNL d   1       2.294  -1.295  -1.207  0.00  0.00     0.031 A 
ATOM     11  C   UNL d   1       0.943  -1.203  -0.882  0.00  0.00     0.043 A 
ATOM     12  N   UNL d   1      -0.036  -2.046  -1.273  0.00  0.00    -0.358 N 
ATOM     13  HN  UNL d   1       0.049  -2.884  -1.848  1.00  0.00     0.166 HD
ATOM     14  C   UNL d   1      -1.918   0.456   0.701  0.00  0.00     0.074 C 
ENDROOT
BRANCH   1  15
ATOM     15  N   UNL d   1      -4.340   0.530   1.274  0.00  0.00    -0.074 N 
ATOM     16  C   UNL d   1      -4.619   1.569   0.288  0.00  0.00     0.267 C 
ATOM     17  HN2 UNL d   1      -4.159   0.923   2.197  1.00  0.00     0.277 HD
ATOM     18  HN1 UNL d   1      -5.173  -0.013   1.499  1.00  0.00     0.277 HD
ENDBRANCH   1  15
BRANCH   8  19
ATOM     19  C   UNL d   1       3.585   1.784   0.610  0.00  0.00     0.265 C 
ATOM     20  O   UNL d   1       4.814   1.733   0.335  0.00  0.00    -0.271 OA
ATOM     21  N   UNL d   1       3.098   2.850   1.421  0.00  0.00    -0.057 NA
ENDBRANCH   8  19
TORSDOF 2
