REMARK  Name = fda_7872
REMARK  10 active torsions:
REMARK  status: ('A' for Active; 'I' for Inactive)
REMARK    1  A    between atoms: C_1  and  N_2
REMARK    2  A    between atoms: C_1  and  C_24
REMARK    3  A    between atoms: N_2  and  C_3
REMARK    4  A    between atoms: C_4  and  S_5
REMARK    5  A    between atoms: C_4  and  C_14
REMARK    6  A    between atoms: S_5  and  C_6
REMARK    7  A    between atoms: C_6  and  C_8
REMARK    8  A    between atoms: C_14  and  C_15
REMARK    9  A    between atoms: C_15  and  O_16
REMARK   10  A    between atoms: O_16  and  P_17
REMARK                            x       y       z     vdW  Elec       q    Type
REMARK                         _______ _______ _______ _____ _____    ______ ____
ROOT
ATOM      1  C   UNL A   1       0.256  -0.018  -2.891  0.00  0.00    +0.035 C 
ATOM      2  C   UNL A   1      -0.931   0.132  -2.264  0.00  0.00    +0.022 C 
ATOM      3  C   UNL A   1       0.499  -1.192  -3.785  0.00  0.00    +0.048 C 
ENDROOT
BRANCH   1   4
ATOM      4  N   UNL A   1       1.331   0.915  -2.695  0.00  0.00    -0.251 N 
ATOM      5  C   UNL A   1       1.141   2.305  -2.983  0.00  0.00    +0.307 C 
ATOM      6  O   UNL A   1       2.083   3.132  -2.852  0.00  0.00    -0.265 OA
BRANCH   4   7
ATOM      7  C   UNL A   1       2.643   0.423  -2.285  0.00  0.00    +0.129 C 
BRANCH   7   8
ATOM      8  C   UNL A   1       2.727   0.359  -0.793  0.00  0.00    +0.052 A 
ATOM      9  C   UNL A   1       2.430  -0.814  -0.085  0.00  0.00    +0.170 A 
ATOM     10  N   UNL A   1       2.079  -2.011  -0.771  0.00  0.00    -0.107 NA
ATOM     11  N   UNL A   1       2.478  -0.811   1.273  0.00  0.00    -0.213 NA
ATOM     12  C   UNL A   1       2.808   0.315   1.960  0.00  0.00    +0.141 A 
ATOM     13  C   UNL A   1       2.854   0.291   3.445  0.00  0.00    +0.074 C 
ATOM     14  N   UNL A   1       3.093   1.462   1.290  0.00  0.00    -0.229 NA
ATOM     15  C   UNL A   1       3.056   1.503  -0.067  0.00  0.00    +0.101 A 
ENDBRANCH   7   8
ENDBRANCH   4   7
ENDBRANCH   1   4
BRANCH   2  16
ATOM     16  S   UNL A   1      -2.288  -1.019  -2.538  0.00  0.00    -0.049 S 
BRANCH  16  17
ATOM     17  C   UNL A   1      -1.758  -2.118  -1.218  0.00  0.00    +0.225 C 
ATOM     18  O   UNL A   1      -0.915  -3.017  -1.481  0.00  0.00    -0.279 OA
BRANCH  17  19
ATOM     19  C   UNL A   1      -2.296  -1.988   0.148  0.00  0.00    +0.045 A 
ATOM     20  C   UNL A   1      -1.752  -2.747   1.195  0.00  0.00    +0.004 A 
ATOM     21  C   UNL A   1      -2.261  -2.633   2.491  0.00  0.00    +0.000 A 
ATOM     22  C   UNL A   1      -3.322  -1.761   2.751  0.00  0.00    +0.000 A 
ATOM     23  C   UNL A   1      -3.872  -1.003   1.714  0.00  0.00    +0.000 A 
ATOM     24  C   UNL A   1      -3.360  -1.115   0.419  0.00  0.00    +0.004 A 
ENDBRANCH  17  19
ENDBRANCH  16  17
ENDBRANCH   2  16
BRANCH   2  25
ATOM     25  C   UNL A   1      -1.181   1.269  -1.322  0.00  0.00    +0.067 C 
BRANCH  25  26
ATOM     26  C   UNL A   1      -0.516   0.998   0.014  0.00  0.00    +0.159 C 
BRANCH  26  27
ATOM     27  O   UNL A   1      -0.397   2.188   0.732  0.00  0.00    -0.270 OA
BRANCH  27  28
ATOM     28  P   UNL A   1      -0.991   1.847   2.284  0.00  0.00    +0.533 P 
ATOM     29  O   UNL A   1      -0.488   2.899   3.245  0.00  0.00    -0.222 OA
ATOM     30  O   UNL A   1      -0.468   0.325   2.809  0.00  0.00    -0.115 OA
ATOM     31  O   UNL A   1      -2.681   1.885   2.259  0.00  0.00    -0.115 OA
ENDBRANCH  27  28
ENDBRANCH  26  27
ENDBRANCH  25  26
ENDBRANCH   2  25
TORSDOF 10
