REMARK  1 active torsions:
REMARK  status: ('A' for Active; 'I' for Inactive)
REMARK    1  A    between atoms: O_1  and  C_3 
ROOT
ATOM      1  C   UNL d   1      -0.788   0.699   0.164  0.00  0.00     0.094 A 
ATOM      2  C   UNL d   1      -1.015  -0.656  -0.109  0.00  0.00     0.082 A 
ATOM      3 CL   UNL d   1      -2.642  -1.305  -0.201  0.00  0.00    -0.080 Cl
ATOM      4  C   UNL d   1       0.078  -1.502  -0.311  0.00  0.00     0.118 A 
ATOM      5  N   UNL d   1       1.344  -1.010  -0.242  0.00  0.00    -0.332 N 
ATOM      6  HN  UNL d   1       2.132  -1.641  -0.392  1.00  0.00     0.168 HD
ATOM      7  C   UNL d   1       1.585   0.302   0.022  0.00  0.00     0.247 A 
ATOM      8  O   UNL d   1       2.769   0.725   0.078  0.00  0.00    -0.268 OA
ATOM      9  C   UNL d   1       0.520   1.181   0.230  0.00  0.00     0.112 A 
ENDROOT
BRANCH   1  10
ATOM     10  O   UNL d   1      -1.852   1.568   0.370  0.00  0.00    -0.359 OA
ATOM     11  HO  UNL d   1      -1.698   2.487   0.555  1.00  0.00     0.217 HD
ENDBRANCH   1  10
TORSDOF 1
