REMARK  3 active torsions:
REMARK  status: ('A' for Active; 'I' for Inactive)
REMARK    1  A    between atoms: C_2  and  C_3 
REMARK    2  A    between atoms: C_3  and  O_5 
REMARK    3  A    between atoms: C_6  and  O_5 
ROOT
ATOM      1  C   UNL d   1       2.391   0.804  -0.896  0.00  0.00     0.140 C 
ATOM      2  C   UNL d   1       2.035   1.964  -1.815  0.00  0.00     0.034 C 
ATOM      3  C   UNL d   1       0.911   1.475  -2.721  0.00  0.00     0.008 C 
ATOM      4  C   UNL d   1       0.521   0.082  -2.240  0.00  0.00     0.001 C 
ATOM      5  C   UNL d   1       1.783  -0.440  -1.540  0.00  0.00    -0.013 C 
ATOM      6  C   UNL d   1       1.514  -1.542  -0.515  0.00  0.00     0.012 C 
ATOM      7  C   UNL d   1       0.406  -1.172   0.452  0.00  0.00     0.007 C 
ATOM      8  C   UNL d   1      -0.884  -0.927  -0.325  0.00  0.00    -0.002 C 
ATOM      9  C   UNL d   1      -0.714   0.229  -1.329  0.00  0.00    -0.005 C 
ATOM     10  C   UNL d   1      -1.965   0.379  -2.212  0.00  0.00     0.006 C 
ATOM     11  C   UNL d   1      -3.294   0.232  -1.460  0.00  0.00     0.006 C 
ATOM     12  C   UNL d   1      -3.089   0.312   0.046  0.00  0.00     0.001 C 
ATOM     13  C   UNL d   1      -2.160  -0.810   0.566  0.00  0.00    -0.035 C 
ATOM     14  C   UNL d   1      -1.829  -0.485   2.041  0.00  0.00     0.021 C 
ATOM     15  C   UNL d   1      -3.056  -0.250   2.941  0.00  0.00     0.052 C 
ATOM     16  C   UNL d   1      -4.129   0.558   2.265  0.00  0.00     0.131 C 
ATOM     17  O   UNL d   1      -4.818   1.319   2.923  0.00  0.00    -0.298 OA
ATOM     18  C   UNL d   1      -4.409   0.383   0.803  0.00  0.00     0.084 C 
ATOM     19  C   UNL d   1      -3.617  -1.559   3.468  0.00  0.00     0.018 C 
ATOM     20  C   UNL d   1      -2.857  -2.166   0.488  0.00  0.00     0.016 C 
ATOM     21  C   UNL d   1       2.710  -1.022  -2.603  0.00  0.00     0.018 C 
ENDROOT
BRANCH   1  22
ATOM     22  O   UNL d   1       3.801   0.692  -0.724  0.00  0.00    -0.315 OA
BRANCH  22  23
ATOM     23  C   UNL d   1       4.521   1.549   0.110  0.00  0.00     0.258 C 
ATOM     24  O   UNL d   1       3.937   2.445   0.778  0.00  0.00    -0.265 OA
BRANCH  23  25
ATOM     25  C   UNL d   1       5.993   1.379   0.240  0.00  0.00     0.106 C 
ATOM     26  C   UNL d   1       6.296   0.300   1.260  0.00  0.00     0.015 C 
ENDBRANCH  23  25
ENDBRANCH  22  23
ENDBRANCH   1  22
TORSDOF 3
