REMARK  Name = fda_4590
REMARK  2 active torsions:
REMARK  status: ('A' for Active; 'I' for Inactive)
REMARK    1  A    between atoms: N_7  and  S_8
REMARK    2  A    between atoms: S_8  and  C_11
REMARK                            x       y       z     vdW  Elec       q    Type
REMARK                         _______ _______ _______ _____ _____    ______ ____
ROOT
ATOM      1  S   UNL A   1      -0.314  -1.624   1.431  0.00  0.00    +0.097 S 
ATOM      2  O   UNL A   1       0.417  -1.143   2.652  0.00  0.00    -0.148 OA
ATOM      3  O   UNL A   1      -1.094  -2.859   1.783  0.00  0.00    -0.148 OA
ENDROOT
BRANCH   1  10
ATOM      4  C   UNL A   1       4.082   0.212  -2.697  0.00  0.00    +0.055 C 
ATOM      5  C   UNL A   1       3.035  -0.041  -1.669  0.00  0.00    +0.094 A 
ATOM      6  C   UNL A   1       2.437   0.898  -0.860  0.00  0.00    +0.140 A 
ATOM      7  O   UNL A   1       1.573   0.282  -0.096  0.00  0.00    -0.426 OA
ATOM      8  C   UNL A   1       1.633  -0.992  -0.419  0.00  0.00    +0.330 A 
ATOM      9  N   UNL A   1       2.528  -1.258  -1.395  0.00  0.00    -0.197 NA
ATOM     10  N   UNL A   1       0.833  -2.002   0.192  0.00  0.00    -0.041 NA
ATOM     11  C   UNL A   1       2.700   2.363  -0.834  0.00  0.00    +0.074 C 
ENDBRANCH   1  10
BRANCH   1  12
ATOM     12  C   UNL A   1      -1.421  -0.391   0.856  0.00  0.00    +0.127 A 
ATOM     13  C   UNL A   1      -1.583   0.803   1.569  0.00  0.00    +0.022 A 
ATOM     14  C   UNL A   1      -2.457   1.788   1.099  0.00  0.00    +0.019 A 
ATOM     15  C   UNL A   1      -3.169   1.582  -0.086  0.00  0.00    +0.089 A 
ATOM     16  C   UNL A   1      -3.008   0.391  -0.801  0.00  0.00    +0.019 A 
ATOM     17  C   UNL A   1      -2.134  -0.594  -0.331  0.00  0.00    +0.022 A 
ATOM     18  N   UNL A   1      -4.057   2.584  -0.565  0.00  0.00    -0.128 NA
ENDBRANCH   1  12
TORSDOF 2
