REMARK  6 active torsions:
REMARK  status: ('A' for Active; 'I' for Inactive)
REMARK    1  A    between atoms: C_3  and  O_4 
REMARK    2  A    between atoms: C_6  and  C_18 
REMARK    3  A    between atoms: C_10  and  O_11 
REMARK    4  A    between atoms: C_14  and  O_15 
REMARK    5  A    between atoms: C_21  and  O_22 
REMARK    6  A    between atoms: C_25  and  O_26 
ROOT
ATOM      1  O   UNL d   1      -1.516   2.489   1.617  0.00  0.00    -0.284 OA
ATOM      2  C   UNL d   1      -1.175   1.456   0.978  0.00  0.00     0.223 A 
ATOM      3  C   UNL d   1       0.183   1.154   0.840  0.00  0.00     0.152 A 
ATOM      4  C   UNL d   1       0.560   0.007   0.117  0.00  0.00     0.126 A 
ATOM      5  O   UNL d   1      -0.374  -0.790  -0.393  0.00  0.00    -0.306 OA
ATOM      6  C   UNL d   1      -1.675  -0.547  -0.281  0.00  0.00     0.096 A 
ATOM      7  C   UNL d   1      -2.586  -1.436  -0.856  0.00  0.00     0.075 A 
ATOM      8  C   UNL d   1      -3.957  -1.202  -0.757  0.00  0.00     0.071 A 
ATOM      9  C   UNL d   1      -4.426  -0.075  -0.081  0.00  0.00     0.074 A 
ATOM     10  C   UNL d   1      -3.532   0.828   0.502  0.00  0.00     0.085 A 
ATOM     11  C   UNL d   1      -2.139   0.600   0.408  0.00  0.00     0.084 A 
ENDROOT
BRANCH   4  12
ATOM     12  C   UNL d   1       1.977  -0.361  -0.072  0.00  0.00     0.034 A 
ATOM     13  C   UNL d   1       2.374  -1.671   0.228  0.00  0.00     0.020 A 
ATOM     14  C   UNL d   1       3.702  -2.068   0.054  0.00  0.00     0.037 A 
ATOM     15  C   UNL d   1       4.643  -1.160  -0.433  0.00  0.00     0.068 A 
ATOM     16  C   UNL d   1       4.255   0.141  -0.760  0.00  0.00     0.074 A 
ATOM     17  C   UNL d   1       2.926   0.544  -0.591  0.00  0.00     0.081 A 
BRANCH  15  18
ATOM     18  O   UNL d   1       5.964  -1.552  -0.600  0.00  0.00    -0.361 OA
ATOM     19  HO  UNL d   1       6.605  -0.934  -0.931  1.00  0.00     0.217 HD
ENDBRANCH  15  18
BRANCH  17  20
ATOM     20  O   UNL d   1       2.559   1.830  -0.969  0.00  0.00    -0.360 OA
ATOM     21  HO  UNL d   1       1.656   2.104  -0.855  1.00  0.00     0.217 HD
ENDBRANCH  17  20
ENDBRANCH   4  12
BRANCH   3  22
ATOM     22  O   UNL d   1       1.139   1.968   1.440  0.00  0.00    -0.355 OA
ATOM     23  HO  UNL d   1       2.062   1.763   1.346  1.00  0.00     0.218 HD
ENDBRANCH   3  22
BRANCH  10  24
ATOM     24  O   UNL d   1      -4.045   1.936   1.166  0.00  0.00    -0.360 OA
ATOM     25  HO  UNL d   1      -3.438   2.549   1.562  1.00  0.00     0.217 HD
ENDBRANCH  10  24
BRANCH   8  26
ATOM     26  O   UNL d   1      -4.856  -2.090  -1.331  0.00  0.00    -0.361 OA
ATOM     27  HO  UNL d   1      -5.790  -1.930  -1.263  1.00  0.00     0.217 HD
ENDBRANCH   8  26
TORSDOF 6
