REMARK  11 active torsions:
REMARK  status: ('A' for Active; 'I' for Inactive)
REMARK    1  A    between atoms: C_6  and  O_10 
REMARK    2  A    between atoms: C_7  and  C_8 
REMARK    3  A    between atoms: C_16  and  O_39 
REMARK    4  A    between atoms: C_24  and  C_17 
REMARK    5  A    between atoms: C_18  and  O_22 
REMARK    6  A    between atoms: C_19  and  O_20 
REMARK    7  A    between atoms: C_25  and  O_37 
REMARK    8  A    between atoms: C_26  and  O_35 
REMARK    9  A    between atoms: C_27  and  O_33 
REMARK   10  A    between atoms: C_28  and  C_30 
REMARK   11  A    between atoms: C_30  and  O_31 
ROOT
ATOM      1  C   UNL d   1       3.825   1.974  -1.309  0.00  0.00     0.050 C 
ATOM      2  C   UNL d   1       3.967   0.615  -0.691  0.00  0.00    -0.027 A 
ATOM      3  C   UNL d   1       2.814  -0.128  -0.303  0.00  0.00     0.036 A 
ATOM      4  C   UNL d   1       2.985  -1.347   0.382  0.00  0.00     0.032 A 
ATOM      5  C   UNL d   1       4.269  -1.828   0.644  0.00  0.00     0.054 A 
ATOM      6  C   UNL d   1       5.397  -1.123   0.247  0.00  0.00     0.084 A 
ATOM      7  C   UNL d   1       5.267   0.108  -0.424  0.00  0.00     0.080 A 
ATOM      8  C   UNL d   1       1.823  -2.133   0.840  0.00  0.00     0.197 C 
ATOM      9  O   UNL d   1       2.016  -3.260   1.373  0.00  0.00    -0.286 OA
ATOM     10  C   UNL d   1       0.445  -1.599   0.685  0.00  0.00     0.068 A 
ATOM     11  C   UNL d   1       0.248  -0.384  -0.012  0.00  0.00     0.066 A 
ATOM     12  C   UNL d   1      -1.064   0.133  -0.148  0.00  0.00     0.092 A 
ATOM     13  C   UNL d   1      -2.162  -0.558   0.394  0.00  0.00     0.043 A 
ATOM     14  C   UNL d   1      -1.958  -1.764   1.071  0.00  0.00     0.111 A 
ATOM     15  C   UNL d   1      -0.670  -2.282   1.222  0.00  0.00     0.115 A 
ATOM     16  C   UNL d   1       1.421   0.325  -0.601  0.00  0.00     0.197 C 
ATOM     17  O   UNL d   1       1.228   1.290  -1.388  0.00  0.00    -0.286 OA
ENDROOT
BRANCH  13  18
ATOM     18  C   UNL d   1      -3.569  -0.035   0.247  0.00  0.00     0.192 C 
ATOM     19  O   UNL d   1      -3.673   1.298   0.696  0.00  0.00    -0.368 OA
ATOM     20  C   UNL d   1      -5.048   1.555   0.818  0.00  0.00     0.177 C 
ATOM     21  C   UNL d   1      -5.708   1.714  -0.574  0.00  0.00     0.180 C 
ATOM     22  C   UNL d   1      -4.888   1.022  -1.680  0.00  0.00     0.181 C 
ATOM     23  C   UNL d   1      -4.215  -0.253  -1.151  0.00  0.00     0.183 C 
BRANCH  20  24
ATOM     24  C   UNL d   1      -5.286   2.729   1.758  0.00  0.00     0.198 C 
BRANCH  24  25
ATOM     25  O   UNL d   1      -6.634   2.786   2.114  0.00  0.00    -0.398 OA
ATOM     26  HO  UNL d   1      -6.783   3.519   2.701  1.00  0.00     0.209 HD
ENDBRANCH  24  25
ENDBRANCH  20  24
BRANCH  21  27
ATOM     27  O   UNL d   1      -5.934   3.056  -0.902  0.00  0.00    -0.390 OA
ATOM     28  HO  UNL d   1      -6.440   3.483  -0.221  1.00  0.00     0.210 HD
ENDBRANCH  21  27
BRANCH  22  29
ATOM     29  O   UNL d   1      -3.921   1.896  -2.189  0.00  0.00    -0.390 OA
ATOM     30  HO  UNL d   1      -4.338   2.684  -2.516  1.00  0.00     0.210 HD
ENDBRANCH  22  29
BRANCH  23  31
ATOM     31  O   UNL d   1      -3.318  -0.767  -2.093  0.00  0.00    -0.390 OA
ATOM     32  HO  UNL d   1      -3.713  -0.900  -2.947  1.00  0.00     0.210 HD
ENDBRANCH  23  31
ENDBRANCH  13  18
BRANCH  12  33
ATOM     33  O   UNL d   1      -1.285   1.335  -0.816  0.00  0.00    -0.359 OA
ATOM     34  HO  UNL d   1      -2.165   1.681  -0.908  1.00  0.00     0.217 HD
ENDBRANCH  12  33
BRANCH  14  35
ATOM     35  O   UNL d   1      -3.041  -2.456   1.605  0.00  0.00    -0.357 OA
ATOM     36  HO  UNL d   1      -2.902  -3.276   2.065  1.00  0.00     0.217 HD
ENDBRANCH  14  35
BRANCH  15  37
ATOM     37  O   UNL d   1      -0.513  -3.479   1.915  0.00  0.00    -0.357 OA
ATOM     38  HO  UNL d   1      -1.262  -3.938   2.276  1.00  0.00     0.217 HD
ENDBRANCH  15  37
BRANCH   7  39
ATOM     39  C   UNL d   1       6.491   0.846  -0.839  0.00  0.00     0.212 C 
ATOM     40  O   UNL d   1       7.543   0.775  -0.150  0.00  0.00    -0.644 OA
ATOM     41  O   UNL d   1       6.502   1.610  -2.000  0.00  0.00    -0.644 OA
ENDBRANCH   7  39
BRANCH   6  42
ATOM     42  O   UNL d   1       6.647  -1.669   0.516  0.00  0.00    -0.360 OA
ATOM     43  HO  UNL d   1       7.419  -1.187   0.245  1.00  0.00     0.217 HD
ENDBRANCH   6  42
TORSDOF 11
