REMARK  2 active torsions:
REMARK  status: ('A' for Active; 'I' for Inactive)
REMARK    1  A    between atoms: C_3  and  S_19 
REMARK    2  A    between atoms: N_8  and  N_10 
REMARK       I    between atoms: N_10  and  C_12 
ROOT
ATOM      1  C   UNL d   1      -2.577  -1.366  -2.658  0.00  0.00     0.151 C 
ATOM      2  N   UNL d   1      -2.167  -0.515  -1.552  0.00  0.00    -0.364 N 
ATOM      3  C   UNL d   1      -3.016   0.513  -0.946  0.00  0.00     0.233 A 
ATOM      4  C   UNL d   1      -2.100   1.366  -0.031  0.00  0.00     0.085 A 
ATOM      5  C   UNL d   1      -0.754   0.757  -0.196  0.00  0.00    -0.026 A 
ATOM      6  C   UNL d   1       0.387   1.143   0.379  0.00  0.00     0.044 A 
ATOM      7  C   UNL d   1       1.628   0.401   0.067  0.00  0.00     0.098 A 
ATOM      8  N   UNL d   1       2.736   0.777   0.632  0.00  0.00    -0.293 N 
ATOM      9  HN  UNL d   1       2.708   1.572   1.272  1.00  0.00     0.187 HD
ATOM     10  C   UNL d   1       1.536  -0.748  -0.891  0.00  0.00     0.202 A 
ATOM     11  O   UNL d   1       2.545  -1.429  -1.214  0.00  0.00    -0.286 OA
ATOM     12  C   UNL d   1       0.219  -1.086  -1.470  0.00  0.00     0.087 A 
ATOM     13  C   UNL d   1      -0.836  -0.350  -1.111  0.00  0.00     0.041 A 
ENDROOT
BRANCH   8  14
ATOM     14  N   UNL d   1       3.968   0.146   0.408  0.00  0.00    -0.254 N 
ATOM     15  C   UNL d   1       5.155   0.600   1.054  0.00  0.00     0.347 C 
ATOM     16  N   UNL d   1       6.389  -0.061   0.807  0.00  0.00    -0.038 NA
ATOM     17  O   UNL d   1       5.117   1.581   1.843  0.00  0.00    -0.249 OA
ATOM     18  HN  UNL d   1       4.015  -0.650  -0.228  1.00  0.00     0.191 HD
ENDBRANCH   8  14
BRANCH   3  19
ATOM     19  S   UNL d   1      -4.302  -0.245   0.032  0.00  0.00     0.125 S 
ATOM     20  O   UNL d   1      -3.616  -1.276   1.167  0.00  0.00    -0.594 OA
ATOM     21  O   UNL d   1      -5.091   0.820   0.739  0.00  0.00    -0.594 OA
ATOM     22  O   UNL d   1      -5.220  -1.029  -0.862  0.00  0.00    -0.594 OA
ENDBRANCH   3  19
TORSDOF 2
