REMARK  1 active torsions:
REMARK  status: ('A' for Active; 'I' for Inactive)
REMARK    1  A    between atoms: C_10  and  N_9 
ROOT
ATOM      1  C   UNL d   1       0.346   0.770  -0.790  0.00  0.00     0.146 A 
ATOM      2  C   UNL d   1       1.721   0.825  -1.003  0.00  0.00     0.199 A 
ATOM      3  C   UNL d   1       2.525  -0.146  -0.407  0.00  0.00     0.289 A 
ATOM      4  O   UNL d   1       3.772  -0.130  -0.575  0.00  0.00    -0.265 OA
ATOM      5  N   UNL d   1       1.958  -1.113   0.357  0.00  0.00    -0.273 N 
ATOM      6  HN  UNL d   1       2.551  -1.821   0.790  1.00  0.00     0.173 HD
ATOM      7  C   UNL d   1       0.613  -1.156   0.557  0.00  0.00     0.331 A 
ATOM      8  O   UNL d   1       0.126  -2.072   1.274  0.00  0.00    -0.246 OA
ATOM      9  N   UNL d   1      -0.196  -0.213  -0.015  0.00  0.00    -0.279 N 
ATOM     10  F   UNL d   1       2.256   1.804  -1.774  0.00  0.00    -0.199 F 
ENDROOT
BRANCH   9  11
ATOM     11  C   UNL d   1      -1.644  -0.260   0.191  0.00  0.00     0.232 C 
ATOM     12  O   UNL d   1      -2.122   0.981   0.643  0.00  0.00    -0.366 OA
ATOM     13  C   UNL d   1      -3.447   1.047   0.191  0.00  0.00     0.170 C 
ATOM     14  C   UNL d   1      -3.545   0.292  -1.114  0.00  0.00     0.031 C 
ATOM     15  C   UNL d   1      -2.362  -0.627  -1.090  0.00  0.00     0.056 C 
ENDBRANCH   9  11
TORSDOF 1
