REMARK  10 active torsions:
REMARK  status: ('A' for Active; 'I' for Inactive)
REMARK    1  A    between atoms: C_2  and  O_3 
REMARK    2  A    between atoms: O_3  and  C_4 
REMARK    3  A    between atoms: C_4  and  C_6 
REMARK    4  A    between atoms: C_6  and  C_7 
REMARK    5  A    between atoms: C_6  and  N_30 
REMARK    6  A    between atoms: C_7  and  C_8 
REMARK    7  A    between atoms: C_8  and  C_9 
REMARK    8  A    between atoms: CA_15  and  C_17 
REMARK    9  A    between atoms: CA_15  and  N_30 
REMARK       I    between atoms: C_17  and  N_19 
REMARK   10  A    between atoms: CA_27  and  C_28 
ROOT
ATOM      1  N   UNL d   1      -0.943  -0.385  -1.516  0.00  0.00    -0.049 N 
ATOM      2  HN1 UNL d   1      -0.773   0.586  -1.780  1.00  0.00     0.279 HD
ATOM      3  HN2 UNL d   1      -1.608  -0.613  -2.255  1.00  0.00     0.279 HD
ENDROOT
BRANCH   1   4
ATOM      4  C   UNL d   1      -1.518  -0.514  -0.183  0.00  0.00     0.286 C 
BRANCH   4   5
ATOM      5  C   UNL d   1      -0.819   0.397   0.782  0.00  0.00     0.289 C 
ATOM      6  O   UNL d   1      -0.626   0.011   1.966  0.00  0.00    -0.263 OA
BRANCH   5   7
ATOM      7  O   UNL d   1      -0.403   1.664   0.369  0.00  0.00    -0.320 OA
BRANCH   7   8
ATOM      8  C   UNL d   1       0.303   2.539   1.236  0.00  0.00     0.174 C 
ATOM      9  C   UNL d   1       0.690   3.792   0.480  0.00  0.00     0.034 C 
ENDBRANCH   7   8
ENDBRANCH   5   7
ENDBRANCH   4   5
BRANCH   4  10
ATOM     10  C   UNL d   1      -2.998  -0.179  -0.244  0.00  0.00     0.048 C 
BRANCH  10  11
ATOM     11  C   UNL d   1      -3.716  -0.715   0.984  0.00  0.00     0.041 C 
BRANCH  11  12
ATOM     12  C   UNL d   1      -5.158  -0.351   0.932  0.00  0.00    -0.058 A 
ATOM     13  C   UNL d   1      -5.596   0.859   1.482  0.00  0.00     0.007 A 
ATOM     14  C   UNL d   1      -6.948   1.209   1.419  0.00  0.00     0.001 A 
ATOM     15  C   UNL d   1      -7.864   0.351   0.801  0.00  0.00     0.000 A 
ATOM     16  C   UNL d   1      -7.427  -0.856   0.246  0.00  0.00     0.001 A 
ATOM     17  C   UNL d   1      -6.075  -1.206   0.309  0.00  0.00     0.007 A 
ENDBRANCH  11  12
ENDBRANCH  10  11
ENDBRANCH   4  10
ENDBRANCH   1   4
BRANCH   1  18
ATOM     18  CA  UNL d   1       0.261  -1.202  -1.569  0.00  0.00     0.274 C 
ATOM     19  CB  UNL d   1       0.121  -2.260  -2.648  0.00  0.00     0.050 C 
BRANCH  18  20
ATOM     20  C   UNL d   1       1.453  -0.331  -1.827  0.00  0.00     0.251 C 
ATOM     21  O   UNL d   1       1.565   0.258  -2.937  0.00  0.00    -0.271 OA
ATOM     22  N   UNL d   1       2.440  -0.125  -0.805  0.00  0.00    -0.331 N 
ATOM     23  CA  UNL d   1       2.363  -0.711   0.530  0.00  0.00     0.189 C 
ATOM     24  C   UNL d   1       3.462   0.900  -0.903  0.00  0.00     0.092 C 
ATOM     25  C   UNL d   1       3.444  -0.022   1.351  0.00  0.00     0.043 C 
ATOM     26  C   UNL d   1       3.777   1.230   0.559  0.00  0.00     0.011 C 
ATOM     27  C   UNL d   1       5.175   1.792   0.836  0.00  0.00     0.007 C 
ATOM     28  C   UNL d   1       6.258   1.050   0.067  0.00  0.00     0.001 C 
ATOM     29  C   UNL d   1       5.936   1.093  -1.416  0.00  0.00     0.002 C 
ATOM     30  C   UNL d   1       4.658   0.308  -1.662  0.00  0.00     0.026 C 
BRANCH  23  31
ATOM     31  C   UNL d   1       2.621  -2.181   0.483  0.00  0.00     0.197 C 
ATOM     32  O   UNL d   1       1.810  -2.974   1.026  0.00  0.00    -0.646 OA
ATOM     33  OXT UNL d   1       3.755  -2.679  -0.148  0.00  0.00    -0.646 OA
ENDBRANCH  23  31
ENDBRANCH  18  20
ENDBRANCH   1  18
TORSDOF 10
