REMARK  3 active torsions:
REMARK  status: ('A' for Active; 'I' for Inactive)
REMARK    1  A    between atoms: O_2  and  C_3 
REMARK    2  A    between atoms: C_6  and  C_7 
REMARK    3  A    between atoms: C_7  and  C_8 
ROOT
ATOM      1  C   UNL d   1      -1.803   0.392  -0.123  0.00  0.00     0.068 A 
ATOM      2  C   UNL d   1      -1.254  -0.615   0.688  0.00  0.00     0.037 A 
ATOM      3  C   UNL d   1       0.075  -1.013   0.515  0.00  0.00     0.010 A 
ATOM      4  C   UNL d   1       0.863  -0.410  -0.470  0.00  0.00    -0.055 A 
ATOM      5  C   UNL d   1       0.322   0.597  -1.276  0.00  0.00     0.010 A 
ATOM      6  C   UNL d   1      -1.008   0.994  -1.103  0.00  0.00     0.037 A 
ENDROOT
BRANCH   4   7
ATOM      7  C   UNL d   1       2.284  -0.821  -0.644  0.00  0.00     0.064 C 
BRANCH   7   8
ATOM      8  C   UNL d   1       3.171   0.008   0.223  0.00  0.00    -0.032 C 
ATOM      9  C   UNL d   1       4.484  -0.197   0.220  0.00  0.00     0.007 C 
ENDBRANCH   7   8
ENDBRANCH   4   7
BRANCH   1  10
ATOM     10  O   UNL d   1      -3.128   0.811   0.025  0.00  0.00    -0.356 OA
ATOM     11  C   UNL d   1      -4.006   0.254   0.994  0.00  0.00     0.210 C 
ENDBRANCH   1  10
TORSDOF 3
