REMARK  2 active torsions:
REMARK  status: ('A' for Active; 'I' for Inactive)
REMARK    1  A    between atoms: N_2  and  C_4 
REMARK    2  A    between atoms: C_4  and  C_5 
ROOT
ATOM      1  C   UNL d   1       1.975  -0.893   2.273  0.00  0.00     0.151 C 
ATOM      2  C   UNL d   1       2.605  -1.564   1.058  0.00  0.00     0.054 C 
ATOM      3  C   UNL d   1       3.229  -0.544   0.109  0.00  0.00     0.131 C 
ATOM      4  N   UNL d   1       2.209   0.324  -0.470  0.00  0.00    -0.355 N 
ATOM      5  C   UNL d   1       1.046  -0.079  -1.031  0.00  0.00     0.104 A 
ATOM      6  C   UNL d   1       0.336   1.037  -1.468  0.00  0.00     0.009 A 
ATOM      7  C   UNL d   1      -1.012   1.015  -2.065  0.00  0.00     0.061 A 
ATOM      8  C   UNL d   1      -2.014   0.206  -1.716  0.00  0.00     0.061 A 
ATOM      9  C   UNL d   1      -3.120   0.460  -2.639  0.00  0.00     0.260 A 
ATOM     10  O   UNL d   1      -4.247  -0.100  -2.589  0.00  0.00    -0.267 OA
ATOM     11  N   UNL d   1      -2.792   1.459  -3.597  0.00  0.00    -0.289 N 
ATOM     12  HN  UNL d   1      -3.360   1.837  -4.355  1.00  0.00     0.172 HD
ATOM     13  C   UNL d   1      -1.462   1.795  -3.219  0.00  0.00     0.260 A 
ATOM     14  O   UNL d   1      -0.764   2.639  -3.838  0.00  0.00    -0.267 OA
ATOM     15  C   UNL d   1      -2.042  -0.691  -0.544  0.00  0.00     0.009 A 
ATOM     16  C   UNL d   1      -1.525  -0.399   0.718  0.00  0.00     0.104 A 
ATOM     17  N   UNL d   1      -1.696  -1.468   1.530  0.00  0.00    -0.353 N 
ATOM     18  C   UNL d   1      -1.379  -1.529   2.954  0.00  0.00     0.154 C 
ATOM     19  C   UNL d   1      -0.021  -0.903   3.247  0.00  0.00     0.188 C 
ATOM     20  O   UNL d   1       1.007  -1.745   2.812  0.00  0.00    -0.382 OA
ATOM     21  C   UNL d   1      -2.341  -2.407   0.814  0.00  0.00     0.045 A 
ATOM     22  C   UNL d   1      -2.750  -3.673   1.236  0.00  0.00     0.030 A 
ATOM     23  C   UNL d   1      -3.399  -4.495   0.298  0.00  0.00     0.002 A 
ATOM     24  C   UNL d   1      -3.620  -4.043  -1.021  0.00  0.00     0.001 A 
ATOM     25  C   UNL d   1      -3.199  -2.761  -1.418  0.00  0.00     0.014 A 
ATOM     26  C   UNL d   1      -2.567  -1.965  -0.464  0.00  0.00     0.003 A 
ATOM     27  C   UNL d   1       1.118   2.137  -1.176  0.00  0.00     0.003 A 
ATOM     28  C   UNL d   1       0.894   3.501  -1.360  0.00  0.00     0.014 A 
ATOM     29  C   UNL d   1       1.888   4.389  -0.914  0.00  0.00     0.001 A 
ATOM     30  C   UNL d   1       3.060   3.904  -0.295  0.00  0.00     0.002 A 
ATOM     31  C   UNL d   1       3.253   2.523  -0.110  0.00  0.00     0.030 A 
ATOM     32  C   UNL d   1       2.252   1.665  -0.566  0.00  0.00     0.045 A 
ENDROOT
BRANCH   1  33
ATOM     33  C   UNL d   1       3.042  -0.593   3.323  0.00  0.00     0.303 C 
BRANCH  33  34
ATOM     34  N   UNL d   1       3.796   0.596   2.958  0.00  0.00     0.082 N 
ATOM     35  C   UNL d   1       5.099   0.471   3.583  0.00  0.00     0.309 C 
ATOM     36  C   UNL d   1       3.142   1.730   3.588  0.00  0.00     0.309 C 
ENDBRANCH  33  34
ENDBRANCH   1  33
TORSDOF 2
