REMARK  5 active torsions:
REMARK  status: ('A' for Active; 'I' for Inactive)
REMARK    1  A    between atoms: C_2  and  O_4 
REMARK    2  A    between atoms: O_4  and  C_5 
REMARK    3  A    between atoms: C_5  and  C_6 
REMARK    4  A    between atoms: C_6  and  C_8 
REMARK    5  A    between atoms: C_8  and  O_29 
ROOT
ATOM      1  C   UNL d   1       2.494   0.276  -0.482  0.00  0.00     0.128 C 
ATOM      2  C   UNL d   1       2.517  -0.809   0.577  0.00  0.00     0.047 C 
ATOM      3  C   UNL d   1       1.447  -0.431   1.584  0.00  0.00     0.009 C 
ATOM      4  C   UNL d   1       0.429   0.434   0.850  0.00  0.00     0.002 C 
ATOM      5  C   UNL d   1       1.000   0.705  -0.563  0.00  0.00     0.005 C 
ATOM      6  C   UNL d   1       0.245  -0.115  -1.631  0.00  0.00     0.091 C 
ATOM      7  C   UNL d   1      -1.226   0.157  -1.560  0.00  0.00     0.133 C 
ATOM      8  O   UNL d   1      -1.839   0.405  -2.586  0.00  0.00    -0.297 OA
ATOM      9  C   UNL d   1      -1.916   0.186  -0.212  0.00  0.00     0.072 C 
ATOM     10  C   UNL d   1      -0.946  -0.261   0.901  0.00  0.00     0.003 C 
ATOM     11  C   UNL d   1      -1.589  -0.039   2.264  0.00  0.00     0.010 C 
ATOM     12  C   UNL d   1      -2.826  -0.913   2.400  0.00  0.00     0.035 C 
ATOM     13  C   UNL d   1      -3.777  -0.653   1.273  0.00  0.00    -0.067 C 
ATOM     14  C   UNL d   1      -5.084  -0.635   1.555  0.00  0.00     0.053 C 
ATOM     15  C   UNL d   1      -6.095  -0.489   0.501  0.00  0.00     0.149 C 
ATOM     16  O   UNL d   1      -7.314  -0.433   0.805  0.00  0.00    -0.293 OA
ATOM     17  C   UNL d   1      -5.685  -0.471  -0.936  0.00  0.00     0.084 C 
ATOM     18  C   UNL d   1      -4.277   0.107  -1.072  0.00  0.00     0.022 C 
ATOM     19  C   UNL d   1      -3.256  -0.604  -0.162  0.00  0.00    -0.009 C 
ATOM     20  C   UNL d   1      -3.048  -2.036  -0.653  0.00  0.00     0.021 C 
ATOM     21  C   UNL d   1       0.843   2.189  -0.899  0.00  0.00     0.019 C 
ENDROOT
BRANCH   1  22
ATOM     22  C   UNL d   1       3.440   1.391  -0.051  0.00  0.00     0.185 C 
ATOM     23  O   UNL d   1       3.254   1.984   1.002  0.00  0.00    -0.292 OA
BRANCH  22  24
ATOM     24  C   UNL d   1       4.608   1.789  -0.904  0.00  0.00     0.260 C 
BRANCH  24  25
ATOM     25  O   UNL d   1       5.831   1.538  -0.222  0.00  0.00    -0.314 OA
BRANCH  25  26
ATOM     26  C   UNL d   1       6.378   0.259  -0.103  0.00  0.00     0.255 C 
ATOM     27  C   UNL d   1       7.638   0.070   0.661  0.00  0.00     0.126 C 
ATOM     28  O   UNL d   1       5.821  -0.737  -0.639  0.00  0.00    -0.266 OA
ENDBRANCH  25  26
ENDBRANCH  24  25
ENDBRANCH  22  24
ENDBRANCH   1  22
BRANCH   1  29
ATOM     29  O   UNL d   1       2.933  -0.269  -1.696  0.00  0.00    -0.381 OA
ATOM     30  HO  UNL d   1       2.343  -0.964  -1.965  1.00  0.00     0.211 HD
ENDBRANCH   1  29
TORSDOF 5
