REMARK  Name = fda_3546
REMARK  0 active torsions:
REMARK  status: ('A' for Active; 'I' for Inactive)
REMARK                            x       y       z     vdW  Elec       q    Type
REMARK                         _______ _______ _______ _____ _____    ______ ____
ROOT
ATOM      1  C   UNL A   1      -2.721   0.097   1.307  0.00  0.00    +0.021 A 
ATOM      2  C   UNL A   1      -1.446   0.525   1.677  0.00  0.00    +0.004 A 
ATOM      3  C   UNL A   1      -0.361   0.323   0.817  0.00  0.00    +0.032 A 
ATOM      4  C   UNL A   1       0.936   0.743   1.161  0.00  0.00    +0.060 A 
ATOM      5  C   UNL A   1       1.992   0.522   0.274  0.00  0.00    +0.026 A 
ATOM      6  C   UNL A   1       1.773  -0.112  -0.952  0.00  0.00    +0.099 A 
ATOM      7  C   UNL A   1       0.484  -0.534  -1.305  0.00  0.00    +0.224 A 
ATOM      8  C   UNL A   1      -0.586  -0.319  -0.424  0.00  0.00    +0.122 A 
ATOM      9  N   UNL A   1      -1.843  -0.725  -0.757  0.00  0.00    -0.241 NA
ATOM     10  C   UNL A   1      -2.901  -0.532   0.074  0.00  0.00    +0.099 A 
ATOM     11  O   UNL A   1       0.266  -1.165  -2.526  0.00  0.00    -0.284 OA
ATOM     12 CL   UNL A   1       3.131  -0.367  -2.033  0.00  0.00    -0.079 Cl
ATOM     13 CL   UNL A   1       1.277   1.545   2.688  0.00  0.00    -0.082 Cl
ENDROOT
TORSDOF 0
