REMARK  9 active torsions:
REMARK  status: ('A' for Active; 'I' for Inactive)
REMARK    1  A    between atoms: C_6  and  C_7 
REMARK    2  A    between atoms: C_7  and  O_8 
REMARK    3  A    between atoms: C_7  and  C_11 
REMARK    4  A    between atoms: O_8  and  C_9 
REMARK    5  A    between atoms: C_11  and  N_12 
REMARK    6  A    between atoms: N_15  and  C_18 
REMARK    7  A    between atoms: C_18  and  C_19 
REMARK    8  A    between atoms: C_19  and  C_20 
REMARK    9  A    between atoms: C_20  and  C_22 
ROOT
ATOM      1  N   UNL d   1       1.737   0.719   0.459  0.00  0.00     0.094 N 
ATOM      2  C   UNL d   1       1.172   1.350   1.660  0.00  0.00     0.302 C 
ATOM      3  C   UNL d   1      -0.149   0.696   2.060  0.00  0.00     0.302 C 
ATOM      4  N   UNL d   1      -1.178   0.890   1.030  0.00  0.00     0.092 N 
ATOM      5  C   UNL d   1      -0.628   0.964  -0.336  0.00  0.00     0.302 C 
ATOM      6  C   UNL d   1       0.713   0.225  -0.477  0.00  0.00     0.302 C 
ENDROOT
BRANCH   1   7
ATOM      7  C   UNL d   1       2.513   1.733  -0.241  0.00  0.00     0.309 C 
BRANCH   7   8
ATOM      8  C   UNL d   1       4.014   1.542  -0.013  0.00  0.00     0.182 C 
BRANCH   8   9
ATOM      9  C   UNL d   1       4.527   0.287  -0.649  0.00  0.00    -0.028 A 
ATOM     10  C   UNL d   1       4.311  -0.968  -0.059  0.00  0.00     0.010 A 
ATOM     11  C   UNL d   1       4.797  -2.127  -0.672  0.00  0.00     0.001 A 
ATOM     12  C   UNL d   1       5.496  -2.037  -1.879  0.00  0.00     0.000 A 
ATOM     13  C   UNL d   1       5.709  -0.789  -2.473  0.00  0.00     0.001 A 
ATOM     14  C   UNL d   1       5.224   0.370  -1.859  0.00  0.00     0.010 A 
ENDBRANCH   8   9
BRANCH   8  15
ATOM     15  O   UNL d   1       4.324   1.581   1.351  0.00  0.00    -0.380 OA
BRANCH  15  16
ATOM     16  C   UNL d   1       5.093   2.736   1.509  0.00  0.00     0.164 C 
ATOM     17  C   UNL d   1       5.068   3.166   2.961  0.00  0.00     0.033 C 
ENDBRANCH  15  16
ENDBRANCH   8  15
ENDBRANCH   7   8
ENDBRANCH   1   7
BRANCH   4  18
ATOM     18  C   UNL d   1      -2.061  -0.266   1.088  0.00  0.00     0.284 C 
BRANCH  18  19
ATOM     19  C   UNL d   1      -3.496   0.151   0.801  0.00  0.00     0.085 C 
ATOM     20  C   UNL d   1      -4.062   0.954   1.959  0.00  0.00     0.020 C 
BRANCH  19  21
ATOM     21  C   UNL d   1      -4.349  -1.053   0.536  0.00  0.00     0.165 C 
ATOM     22  O   UNL d   1      -4.474  -1.935   1.430  0.00  0.00    -0.292 OA
BRANCH  21  23
ATOM     23  C   UNL d   1      -5.048  -1.209  -0.755  0.00  0.00     0.010 A 
ATOM     24  C   UNL d   1      -5.846  -2.339  -0.992  0.00  0.00     0.015 A 
ATOM     25  C   UNL d   1      -6.511  -2.493  -2.212  0.00  0.00     0.001 A 
ATOM     26  C   UNL d   1      -6.382  -1.520  -3.207  0.00  0.00     0.000 A 
ATOM     27  C   UNL d   1      -5.588  -0.392  -2.981  0.00  0.00     0.001 A 
ATOM     28  C   UNL d   1      -4.926  -0.236  -1.760  0.00  0.00     0.015 A 
ENDBRANCH  21  23
ENDBRANCH  19  21
ENDBRANCH  18  19
ENDBRANCH   4  18
TORSDOF 9
