REMARK  7 active torsions:
REMARK  status: ('A' for Active; 'I' for Inactive)
REMARK    1  A    between atoms: C_2  and  C_3 
REMARK    2  A    between atoms: C_2  and  C_14 
REMARK    3  A    between atoms: C_2  and  O_30 
REMARK    4  A    between atoms: C_3  and  S_4 
REMARK    5  A    between atoms: S_4  and  C_7 
REMARK       I    between atoms: C_14  and  N_16 
REMARK    6  A    between atoms: N_16  and  C_18 
REMARK    7  A    between atoms: C_22  and  C_24 
ROOT
ATOM      1  C   UNL d   1       2.206   0.273  -0.910  0.00  0.00     0.035 A 
ATOM      2  C   UNL d   1       2.743   1.139  -1.871  0.00  0.00     0.031 A 
ATOM      3  C   UNL d   1       3.972   1.762  -1.650  0.00  0.00     0.026 A 
ATOM      4  C   UNL d   1       4.681   1.530  -0.468  0.00  0.00     0.059 A 
ATOM      5  C   UNL d   1       4.152   0.658   0.512  0.00  0.00     0.070 A 
ATOM      6  C   UNL d   1       2.914   0.041   0.272  0.00  0.00     0.047 A 
ATOM      7  C   UNL d   1       5.945   2.199  -0.290  0.00  0.00     0.100 C 
ATOM      8  N   UNL d   1       6.960   2.736  -0.147  0.00  0.00    -0.191 NA
ENDROOT
BRANCH   5   9
ATOM      9  C   UNL d   1       4.882   0.377   1.803  0.00  0.00     0.419 C 
ATOM     10  F   UNL d   1       5.060   1.556   2.504  0.00  0.00    -0.166 F 
ATOM     11  F   UNL d   1       4.168  -0.503   2.599  0.00  0.00    -0.166 F 
ATOM     12  F   UNL d   1       6.117  -0.181   1.529  0.00  0.00    -0.166 F 
ENDBRANCH   5   9
BRANCH   1  13
ATOM     13  N   UNL d   1       0.946  -0.385  -1.100  0.00  0.00    -0.325 N 
ATOM     14  C   UNL d   1       0.079  -0.275  -2.240  0.00  0.00     0.257 C 
ATOM     15  O   UNL d   1       0.395   0.452  -3.220  0.00  0.00    -0.270 OA
ATOM     16  HN  UNL d   1       0.633  -0.996  -0.345  1.00  0.00     0.169 HD
BRANCH  14  17
ATOM     17  C   UNL d   1      -1.215  -1.040  -2.258  0.00  0.00     0.148 C 
ATOM     18  C   UNL d   1      -0.902  -2.526  -2.196  0.00  0.00     0.057 C 
BRANCH  17  19
ATOM     19  C   UNL d   1      -2.055  -0.616  -1.049  0.00  0.00     0.193 C 
BRANCH  19  20
ATOM     20  S   UNL d   1      -3.707  -1.309  -1.020  0.00  0.00     0.178 S 
ATOM     21  O   UNL d   1      -3.650  -2.811  -1.027  0.00  0.00    -0.223 OA
ATOM     22  O   UNL d   1      -4.486  -0.845  -2.220  0.00  0.00    -0.223 OA
BRANCH  20  23
ATOM     23  C   UNL d   1      -4.516  -0.769   0.440  0.00  0.00     0.059 A 
ATOM     24  C   UNL d   1      -4.359  -1.484   1.633  0.00  0.00     0.026 A 
ATOM     25  C   UNL d   1      -4.993  -1.048   2.800  0.00  0.00     0.044 A 
ATOM     26  C   UNL d   1      -5.784   0.105   2.777  0.00  0.00     0.116 A 
ATOM     27  C   UNL d   1      -5.939   0.823   1.588  0.00  0.00     0.044 A 
ATOM     28  F   UNL d   1      -6.399   0.527   3.908  0.00  0.00    -0.206 F 
ATOM     29  C   UNL d   1      -5.305   0.387   0.420  0.00  0.00     0.026 A 
ENDBRANCH  20  23
ENDBRANCH  19  20
ENDBRANCH  17  19
BRANCH  17  30
ATOM     30  O   UNL d   1      -1.910  -0.771  -3.441  0.00  0.00    -0.380 OA
ATOM     31  HO  UNL d   1      -2.105   0.158  -3.479  1.00  0.00     0.211 HD
ENDBRANCH  17  30
ENDBRANCH  14  17
ENDBRANCH   1  13
TORSDOF 7
