REMARK  16 active torsions:
REMARK  status: ('A' for Active; 'I' for Inactive)
REMARK    1  A    between atoms: C_2  and  C_3 
REMARK    2  A    between atoms: C_3  and  C_4 
REMARK    3  A    between atoms: C_4  and  C_5 
REMARK    4  A    between atoms: C_5  and  C_7 
REMARK    5  A    between atoms: C_5  and  O_28 
REMARK    6  A    between atoms: C_7  and  C_8 
REMARK    7  A    between atoms: C_10  and  C_9 
REMARK    8  A    between atoms: C_11  and  O_26 
REMARK    9  A    between atoms: C_15  and  C_16 
REMARK   10  A    between atoms: C_16  and  C_17 
REMARK   11  A    between atoms: C_17  and  C_18 
REMARK   12  A    between atoms: C_18  and  C_19 
REMARK   13  A    between atoms: C_19  and  C_20 
REMARK   14  A    between atoms: C_20  and  C_21 
REMARK   15  A    between atoms: C_21  and  C_22 
REMARK   16  A    between atoms: C_22  and  O_24 
ROOT
ATOM      1  C   UNL d   1       1.779  -0.691   1.604  0.00  0.00     0.048 A 
ATOM      2  C   UNL d   1       2.973  -0.814   2.552  0.00  0.00     0.133 A 
ATOM      3  C   UNL d   1       2.550  -0.316   3.923  0.00  0.00     0.111 A 
ATOM      4  C   UNL d   1       1.185   0.210   3.717  0.00  0.00     0.134 A 
ATOM      5  O   UNL d   1       0.559   0.774   4.601  0.00  0.00    -0.297 OA
ATOM      6  C   UNL d   1       0.656   0.029   2.346  0.00  0.00     0.065 A 
ENDROOT
BRANCH   1   7
ATOM      7  C   UNL d   1       2.184   0.085   0.394  0.00  0.00    -0.023 C 
ATOM      8  C   UNL d   1       1.421   0.097  -0.698  0.00  0.00    -0.027 C 
BRANCH   8   9
ATOM      9  C   UNL d   1       1.809   0.888  -1.912  0.00  0.00     0.064 C 
BRANCH   9  10
ATOM     10  C   UNL d   1       1.527   2.389  -1.774  0.00  0.00     0.057 C 
ATOM     11  C   UNL d   1       1.626   3.026  -3.149  0.00  0.00     0.046 C 
BRANCH  10  12
ATOM     12  C   UNL d   1       2.502   3.073  -0.804  0.00  0.00     0.038 C 
BRANCH  12  13
ATOM     13  C   UNL d   1       3.950   3.101  -1.290  0.00  0.00     0.002 C 
BRANCH  13  14
ATOM     14  C   UNL d   1       4.683   1.838  -0.884  0.00  0.00    -0.004 C 
ATOM     15  C   UNL d   1       6.109   1.897  -1.389  0.00  0.00     0.005 C 
ENDBRANCH  13  14
ENDBRANCH  12  13
ENDBRANCH  10  12
BRANCH  10  16
ATOM     16  O   UNL d   1       0.226   2.580  -1.305  0.00  0.00    -0.390 OA
ATOM     17  HO  UNL d   1      -0.377   2.157  -1.905  1.00  0.00     0.210 HD
ENDBRANCH  10  16
ENDBRANCH   9  10
ENDBRANCH   8   9
ENDBRANCH   1   7
BRANCH   6  18
ATOM     18  C   UNL d   1      -0.597  -0.840   2.380  0.00  0.00     0.013 C 
BRANCH  18  19
ATOM     19  C   UNL d   1      -1.298  -0.854   1.030  0.00  0.00     0.001 C 
BRANCH  19  20
ATOM     20  C   UNL d   1      -1.960   0.487   0.758  0.00  0.00     0.000 C 
BRANCH  20  21
ATOM     21  C   UNL d   1      -2.551   0.511  -0.639  0.00  0.00     0.000 C 
BRANCH  21  22
ATOM     22  C   UNL d   1      -3.814  -0.327  -0.696  0.00  0.00     0.010 C 
BRANCH  22  23
ATOM     23  C   UNL d   1      -4.402  -0.261  -2.091  0.00  0.00     0.111 C 
BRANCH  23  24
ATOM     24  C   UNL d   1      -5.617  -1.114  -2.167  0.00  0.00     0.258 C 
ATOM     25  O   UNL d   1      -6.726  -0.656  -1.782  0.00  0.00    -0.265 OA
BRANCH  24  26
ATOM     26  O   UNL d   1      -5.508  -2.421  -2.642  0.00  0.00    -0.326 OA
ATOM     27  C   UNL d   1      -6.632  -3.285  -2.721  0.00  0.00     0.213 C 
ENDBRANCH  24  26
ENDBRANCH  23  24
ENDBRANCH  22  23
ENDBRANCH  21  22
ENDBRANCH  20  21
ENDBRANCH  19  20
ENDBRANCH  18  19
ENDBRANCH   6  18
BRANCH   2  28
ATOM     28  O   UNL d   1       3.367  -2.148   2.638  0.00  0.00    -0.394 OA
ATOM     29  HO  UNL d   1       4.109  -2.224   3.227  1.00  0.00     0.210 HD
ENDBRANCH   2  28
TORSDOF 16
