REMARK  28 active torsions:
REMARK  status: ('A' for Active; 'I' for Inactive)
REMARK    1  A    between atoms: O_2  and  C_3 
REMARK    2  A    between atoms: C_4  and  O_5 
REMARK    3  A    between atoms: C_9  and  C_10 
REMARK    4  A    between atoms: C_10  and  C_11 
REMARK    5  A    between atoms: C_12  and  C_14 
REMARK    6  A    between atoms: C_14  and  C_15 
REMARK    7  A    between atoms: C_15  and  C_16 
REMARK    8  A    between atoms: C_17  and  C_19 
REMARK    9  A    between atoms: C_19  and  C_20 
REMARK   10  A    between atoms: C_20  and  C_21 
REMARK   11  A    between atoms: C_22  and  C_24 
REMARK   12  A    between atoms: C_24  and  C_25 
REMARK   13  A    between atoms: C_25  and  C_26 
REMARK   14  A    between atoms: C_27  and  C_29 
REMARK   15  A    between atoms: C_29  and  C_30 
REMARK   16  A    between atoms: C_30  and  C_31 
REMARK   17  A    between atoms: C_32  and  C_34 
REMARK   18  A    between atoms: C_34  and  C_35 
REMARK   19  A    between atoms: C_35  and  C_36 
REMARK   20  A    between atoms: C_37  and  C_39 
REMARK   21  A    between atoms: C_39  and  C_40 
REMARK   22  A    between atoms: C_40  and  C_41 
REMARK   23  A    between atoms: C_42  and  C_44 
REMARK   24  A    between atoms: C_44  and  C_45 
REMARK   25  A    between atoms: C_45  and  C_46 
REMARK   26  A    between atoms: C_47  and  C_49 
REMARK   27  A    between atoms: C_49  and  C_50 
REMARK   28  A    between atoms: C_50  and  C_51 
ROOT
ATOM      1  C   UNL d   1      -2.043   3.018   0.710  0.00  0.00     0.031 C 
ENDROOT
BRANCH   1   2
ATOM      2  C   UNL d   1      -3.245   2.560  -0.108  0.00  0.00     0.037 C 
BRANCH   2   3
ATOM      3  C   UNL d   1      -3.724   3.645  -1.022  0.00  0.00    -0.087 C 
ATOM      4  C   UNL d   1      -4.362   4.705  -0.506  0.00  0.00    -0.024 C 
ATOM      5  C   UNL d   1      -3.496   3.498  -2.493  0.00  0.00     0.043 C 
BRANCH   4   6
ATOM      6  C   UNL d   1      -4.883   5.851  -1.322  0.00  0.00     0.031 C 
BRANCH   6   7
ATOM      7  C   UNL d   1      -6.096   5.458  -2.154  0.00  0.00     0.037 C 
BRANCH   7   8
ATOM      8  C   UNL d   1      -7.286   5.151  -1.301  0.00  0.00    -0.087 C 
ATOM      9  C   UNL d   1      -7.856   3.945  -1.410  0.00  0.00    -0.024 C 
ATOM     10  C   UNL d   1      -7.841   6.210  -0.397  0.00  0.00     0.043 C 
BRANCH   9  11
ATOM     11  C   UNL d   1      -9.049   3.518  -0.610  0.00  0.00     0.031 C 
BRANCH  11  12
ATOM     12  C   UNL d   1      -8.640   3.081   0.788  0.00  0.00     0.037 C 
BRANCH  12  13
ATOM     13  C   UNL d   1      -7.975   1.742   0.770  0.00  0.00    -0.087 C 
ATOM     14  C   UNL d   1      -8.697   0.649   0.487  0.00  0.00    -0.020 C 
ATOM     15  C   UNL d   1      -6.525   1.657   1.121  0.00  0.00     0.043 C 
BRANCH  14  16
ATOM     16  C   UNL d   1      -8.117  -0.733   0.469  0.00  0.00     0.071 C 
BRANCH  16  17
ATOM     17  C   UNL d   1      -9.172  -1.728   0.081  0.00  0.00     0.008 A 
ATOM     18  C   UNL d   1     -10.058  -2.281   1.131  0.00  0.00     0.215 A 
ATOM     19  C   UNL d   1     -11.116  -3.274   0.780  0.00  0.00     0.156 A 
ATOM     20  O   UNL d   1      -9.907  -1.894   2.321  0.00  0.00    -0.285 OA
ATOM     21  C   UNL d   1     -11.283  -3.627  -0.518  0.00  0.00     0.156 A 
ATOM     22  C   UNL d   1     -10.398  -3.055  -1.558  0.00  0.00     0.214 A 
ATOM     23  C   UNL d   1      -9.336  -2.097  -1.200  0.00  0.00     0.002 A 
ATOM     24  O   UNL d   1     -10.554  -3.395  -2.761  0.00  0.00    -0.285 OA
ATOM     25  C   UNL d   1      -8.455  -1.553  -2.282  0.00  0.00     0.053 C 
BRANCH  19  26
ATOM     26  O   UNL d   1     -11.929  -3.864   1.763  0.00  0.00    -0.350 OA
ATOM     27  C   UNL d   1     -11.839  -3.605   3.157  0.00  0.00     0.210 C 
ENDBRANCH  19  26
BRANCH  21  28
ATOM     28  O   UNL d   1     -12.260  -4.537  -0.959  0.00  0.00    -0.350 OA
ATOM     29  C   UNL d   1     -13.338  -5.043  -0.177  0.00  0.00     0.210 C 
ENDBRANCH  21  28
ENDBRANCH  16  17
ENDBRANCH  14  16
ENDBRANCH  12  13
ENDBRANCH  11  12
ENDBRANCH   9  11
ENDBRANCH   7   8
ENDBRANCH   6   7
ENDBRANCH   4   6
ENDBRANCH   2   3
ENDBRANCH   1   2
BRANCH   1  30
ATOM     30  C   UNL d   1      -0.797   3.022  -0.128  0.00  0.00    -0.024 C 
ATOM     31  C   UNL d   1      -0.089   1.920  -0.410  0.00  0.00    -0.087 C 
ATOM     32  C   UNL d   1      -0.499   0.583   0.137  0.00  0.00     0.043 C 
BRANCH  31  33
ATOM     33  C   UNL d   1       1.121   2.074  -1.294  0.00  0.00     0.037 C 
BRANCH  33  34
ATOM     34  C   UNL d   1       1.942   0.798  -1.433  0.00  0.00     0.031 C 
BRANCH  34  35
ATOM     35  C   UNL d   1       2.866   0.647  -0.264  0.00  0.00    -0.024 C 
ATOM     36  C   UNL d   1       3.490  -0.499   0.026  0.00  0.00    -0.087 C 
ATOM     37  C   UNL d   1       3.256  -1.742  -0.775  0.00  0.00     0.043 C 
BRANCH  36  38
ATOM     38  C   UNL d   1       4.383  -0.549   1.228  0.00  0.00     0.037 C 
BRANCH  38  39
ATOM     39  C   UNL d   1       5.786  -1.029   0.870  0.00  0.00     0.031 C 
BRANCH  39  40
ATOM     40  C   UNL d   1       6.538   0.004   0.082  0.00  0.00    -0.024 C 
ATOM     41  C   UNL d   1       7.114   1.085   0.629  0.00  0.00    -0.087 C 
ATOM     42  C   UNL d   1       7.035   1.364   2.095  0.00  0.00     0.043 C 
BRANCH  41  43
ATOM     43  C   UNL d   1       7.815   2.071  -0.251  0.00  0.00     0.037 C 
BRANCH  43  44
ATOM     44  C   UNL d   1       9.060   1.470  -0.895  0.00  0.00     0.031 C 
BRANCH  44  45
ATOM     45  C   UNL d   1      10.259   1.642  -0.012  0.00  0.00    -0.024 C 
ATOM     46  C   UNL d   1      10.669   0.730   0.880  0.00  0.00    -0.087 C 
ATOM     47  C   UNL d   1       9.949  -0.565   1.076  0.00  0.00     0.043 C 
BRANCH  46  48
ATOM     48  C   UNL d   1      11.877   1.009   1.720  0.00  0.00     0.037 C 
BRANCH  48  49
ATOM     49  C   UNL d   1      13.156   1.011   0.888  0.00  0.00     0.031 C 
BRANCH  49  50
ATOM     50  C   UNL d   1      13.508  -0.375   0.432  0.00  0.00    -0.024 C 
ATOM     51  C   UNL d   1      14.043  -1.310   1.230  0.00  0.00    -0.087 C 
ATOM     52  C   UNL d   1      14.399  -1.020   2.655  0.00  0.00     0.043 C 
BRANCH  51  53
ATOM     53  C   UNL d   1      14.349  -2.665   0.678  0.00  0.00     0.037 C 
BRANCH  53  54
ATOM     54  C   UNL d   1      13.062  -3.425   0.386  0.00  0.00     0.031 C 
BRANCH  54  55
ATOM     55  C   UNL d   1      13.367  -4.797  -0.133  0.00  0.00    -0.024 C 
ATOM     56  C   UNL d   1      13.789  -5.045  -1.379  0.00  0.00    -0.091 C 
ATOM     57  C   UNL d   1      13.982  -3.954  -2.385  0.00  0.00     0.042 C 
ATOM     58  C   UNL d   1      14.053  -6.454  -1.784  0.00  0.00     0.042 C 
ENDBRANCH  54  55
ENDBRANCH  53  54
ENDBRANCH  51  53
ENDBRANCH  49  50
ENDBRANCH  48  49
ENDBRANCH  46  48
ENDBRANCH  44  45
ENDBRANCH  43  44
ENDBRANCH  41  43
ENDBRANCH  39  40
ENDBRANCH  38  39
ENDBRANCH  36  38
ENDBRANCH  34  35
ENDBRANCH  33  34
ENDBRANCH  31  33
ENDBRANCH   1  30
TORSDOF 28
