REMARK  4 active torsions:
REMARK  status: ('A' for Active; 'I' for Inactive)
REMARK    1  A    between atoms: C1*_10  and  N_9 
REMARK    2  A    between atoms: C3*_12  and  O3*_18 
REMARK    3  A    between atoms: C4*_13  and  C5*_15 
REMARK    4  A    between atoms: C5*_15  and  O5*_16 
ROOT
ATOM      1  C   UNL d   1       0.944  -0.688   0.523  0.00  0.00     0.146 A 
ATOM      2  C   UNL d   1       2.276  -1.031   0.738  0.00  0.00     0.199 A 
ATOM      3  C   UNL d   1       3.268  -0.194   0.229  0.00  0.00     0.289 A 
ATOM      4  O   UNL d   1       4.484  -0.469   0.402  0.00  0.00    -0.265 OA
ATOM      5  N   UNL d   1       2.919   0.925  -0.456  0.00  0.00    -0.273 N 
ATOM      6  HN  UNL d   1       3.649   1.534  -0.826  1.00  0.00     0.173 HD
ATOM      7  C   UNL d   1       1.614   1.249  -0.659  0.00  0.00     0.331 A 
ATOM      8  O   UNL d   1       1.331   2.297  -1.300  0.00  0.00    -0.246 OA
ATOM      9  N   UNL d   1       0.623   0.441  -0.171  0.00  0.00    -0.279 N 
ATOM     10  F   UNL d   1       2.591  -2.155   1.427  0.00  0.00    -0.199 F 
ENDROOT
BRANCH   9  11
ATOM     11  C1* UNL d   1      -0.783   0.789  -0.380  0.00  0.00     0.235 C 
ATOM     12  O4* UNL d   1      -1.483  -0.290  -0.958  0.00  0.00    -0.356 OA
ATOM     13  C4* UNL d   1      -2.638  -0.501  -0.178  0.00  0.00     0.176 C 
ATOM     14  C3* UNL d   1      -2.818   0.652   0.777  0.00  0.00     0.153 C 
ATOM     15  C2* UNL d   1      -1.439   1.198   0.919  0.00  0.00     0.088 C 
BRANCH  13  16
ATOM     16  C5* UNL d   1      -3.857  -0.626  -1.073  0.00  0.00     0.198 C 
BRANCH  16  17
ATOM     17  O5* UNL d   1      -3.759  -1.781  -1.849  0.00  0.00    -0.398 OA
ATOM     18  H5* UNL d   1      -4.522  -1.859  -2.409  1.00  0.00     0.209 HD
ENDBRANCH  16  17
ENDBRANCH  13  16
BRANCH  14  19
ATOM     19  O3* UNL d   1      -3.271   0.184   2.010  0.00  0.00    -0.393 OA
ATOM     20  H3* UNL d   1      -4.150  -0.164   1.920  1.00  0.00     0.210 HD
ENDBRANCH  14  19
ENDBRANCH   9  11
TORSDOF 4
