REMARK  5 active torsions:
REMARK  status: ('A' for Active; 'I' for Inactive)
REMARK    1  A    between atoms: C_2  and  N_3 
REMARK       I    between atoms: N_3  and  C_5 
REMARK    2  A    between atoms: C_5  and  O_7 
REMARK    3  A    between atoms: O_7  and  C_8 
REMARK    4  A    between atoms: C_12  and  C_14 
REMARK    5  A    between atoms: C_14  and  N_18 
ROOT
ATOM      1  C   UNL d   1      -0.381  -0.611  -1.048  0.00  0.00     0.081 A 
ATOM      2  C   UNL d   1       0.137  -1.316  -2.140  0.00  0.00     0.037 A 
ATOM      3  C   UNL d   1       1.496  -1.637  -2.200  0.00  0.00     0.003 A 
ATOM      4  C   UNL d   1       2.350  -1.254  -1.163  0.00  0.00     0.009 A 
ATOM      5  C   UNL d   1       1.847  -0.545  -0.063  0.00  0.00    -0.023 A 
ATOM      6  C   UNL d   1       0.485  -0.230  -0.009  0.00  0.00     0.046 A 
ENDROOT
BRANCH   1   7
ATOM      7  O   UNL d   1      -1.753  -0.316  -1.036  0.00  0.00    -0.261 OA
BRANCH   7   8
ATOM      8  C   UNL d   1      -2.446   0.388  -0.037  0.00  0.00     0.367 C 
ATOM      9  N   UNL d   1      -3.858   0.596  -0.176  0.00  0.00    -0.332 N 
ATOM     10  C   UNL d   1      -4.542   0.168  -1.384  0.00  0.00     0.155 C 
ATOM     11  O   UNL d   1      -1.844   0.840   0.975  0.00  0.00    -0.238 OA
BRANCH   9  12
ATOM     12  C   UNL d   1      -4.620   1.332   0.824  0.00  0.00     0.123 C 
ATOM     13  C   UNL d   1      -4.804   0.487   2.072  0.00  0.00     0.026 C 
ENDBRANCH   9  12
ENDBRANCH   7   8
ENDBRANCH   1   7
BRANCH   5  14
ATOM     14  C   UNL d   1       2.743  -0.126   1.070  0.00  0.00     0.251 C 
ATOM     15  C   UNL d   1       3.180  -1.376   1.832  0.00  0.00     0.048 C 
BRANCH  14  16
ATOM     16  N   UNL d   1       3.903   0.644   0.593  0.00  0.00     0.088 N 
ATOM     17  C   UNL d   1       4.681   1.080   1.744  0.00  0.00     0.310 C 
ATOM     18  C   UNL d   1       3.425   1.875  -0.024  0.00  0.00     0.310 C 
ENDBRANCH  14  16
ENDBRANCH   5  14
TORSDOF 5
