REMARK  3 active torsions:
REMARK  status: ('A' for Active; 'I' for Inactive)
REMARK    1  A    between atoms: O_1  and  C_2 
REMARK    2  A    between atoms: C_20  and  O_1 
REMARK       I    between atoms: C_2  and  N_4 
REMARK    3  A    between atoms: C_5  and  C_14 
ROOT
ATOM      1  C   UNL d   1       0.884   0.248  -0.707  0.00  0.00     0.364 C 
ATOM      2  O   UNL d   1       0.538  -0.019  -1.891  0.00  0.00    -0.238 OA
ATOM      3  N   UNL d   1      -0.065   0.808   0.211  0.00  0.00    -0.315 N 
ATOM      4  C   UNL d   1      -1.451   1.035  -0.235  0.00  0.00     0.156 C 
ATOM      5  C   UNL d   1      -2.112   2.141   0.536  0.00  0.00    -0.024 A 
ATOM      6  C   UNL d   1      -1.756   2.367   1.873  0.00  0.00    -0.048 A 
ATOM      7  C   UNL d   1      -0.748   1.481   2.525  0.00  0.00     0.059 C 
ATOM      8  C   UNL d   1       0.399   1.162   1.563  0.00  0.00     0.134 C 
ATOM      9  C   UNL d   1      -2.387   3.377   2.605  0.00  0.00     0.008 A 
ATOM     10  C   UNL d   1      -3.362   4.175   1.996  0.00  0.00     0.001 A 
ATOM     11  C   UNL d   1      -3.713   3.955   0.660  0.00  0.00     0.001 A 
ATOM     12  C   UNL d   1      -3.091   2.937  -0.070  0.00  0.00     0.010 A 
ENDROOT
BRANCH   1  13
ATOM     13  O   UNL d   1       2.195  -0.001  -0.286  0.00  0.00    -0.296 OA
BRANCH  13  14
ATOM     14  C   UNL d   1       3.167  -0.607  -1.131  0.00  0.00     0.166 C 
ATOM     15  C   UNL d   1       2.887  -2.110  -1.300  0.00  0.00     0.020 C 
ATOM     16  C   UNL d   1       3.962  -2.668  -2.236  0.00  0.00     0.037 C 
ATOM     17  C   UNL d   1       3.064  -2.796   0.060  0.00  0.00     0.037 C 
ATOM     18  C   UNL d   1       5.361  -2.393  -1.640  0.00  0.00     0.273 C 
ATOM     19  N   UNL d   1       5.271  -1.698  -0.340  0.00  0.00     0.090 N 
ATOM     20  C   UNL d   1       4.576  -0.410  -0.528  0.00  0.00     0.305 C 
ATOM     21  C   UNL d   1       4.489  -2.529   0.594  0.00  0.00     0.273 C 
ENDBRANCH  13  14
ENDBRANCH   1  13
BRANCH   4  22
ATOM     22  C   UNL d   1      -2.254  -0.232  -0.190  0.00  0.00    -0.031 A 
ATOM     23  C   UNL d   1      -2.362  -0.986   0.989  0.00  0.00     0.009 A 
ATOM     24  C   UNL d   1      -3.121  -2.159   1.006  0.00  0.00     0.001 A 
ATOM     25  C   UNL d   1      -3.778  -2.583  -0.153  0.00  0.00     0.000 A 
ATOM     26  C   UNL d   1      -3.676  -1.833  -1.329  0.00  0.00     0.001 A 
ATOM     27  C   UNL d   1      -2.916  -0.660  -1.346  0.00  0.00     0.009 A 
ENDBRANCH   4  22
TORSDOF 3
