REMARK  5 active torsions:
REMARK  status: ('A' for Active; 'I' for Inactive)
REMARK       I    between atoms: C_2  and  N_3 
REMARK    1  A    between atoms: C_2  and  C_18 
REMARK    2  A    between atoms: CA_5  and  N_3 
REMARK    3  A    between atoms: CA_13  and  C_14 
REMARK    4  A    between atoms: C_19  and  O_20 
REMARK    5  A    between atoms: C_25  and  O_26 
ROOT
ATOM      1  O   UNL d   1      -1.621  -0.975   2.209  0.00  0.00    -0.267 OA
ATOM      2  C   UNL d   1      -1.587  -0.200   1.214  0.00  0.00     0.258 C 
ATOM      3  N   UNL d   1      -0.424   0.599   0.984  0.00  0.00    -0.341 N 
ATOM      4  HN  UNL d   1      -0.419   1.242   0.192  1.00  0.00     0.163 HD
ENDROOT
BRANCH   3   5
ATOM      5  CA  UNL d   1       0.757   0.531   1.839  0.00  0.00     0.210 A 
ATOM      6  C   UNL d   1       1.740   1.575   1.417  0.00  0.00     0.247 A 
ATOM      7  N   UNL d   1       2.639   0.517   0.914  0.00  0.00    -0.318 N 
ATOM      8  O   UNL d   1       1.759   2.834   1.420  0.00  0.00    -0.271 OA
ATOM      9  C   UNL d   1       1.722  -0.461   1.409  0.00  0.00     0.183 A 
ATOM     10  CA  UNL d   1       3.377   0.351  -0.310  0.00  0.00     0.207 C 
ATOM     11  S   UNL d   1       1.334  -1.478  -0.065  0.00  0.00    -0.129 SA
ATOM     12  C   UNL d   1       2.928  -1.015  -0.874  0.00  0.00     0.033 C 
ATOM     13  C   UNL d   1       3.926  -2.137  -0.616  0.00  0.00     0.029 C 
ATOM     14  C   UNL d   1       2.708  -0.890  -2.367  0.00  0.00     0.029 C 
BRANCH  10  15
ATOM     15  C   UNL d   1       4.851   0.523  -0.087  0.00  0.00     0.198 C 
ATOM     16  O   UNL d   1       5.449   0.053   1.076  0.00  0.00    -0.646 OA
ATOM     17  OXT UNL d   1       5.556   1.066  -0.976  0.00  0.00    -0.646 OA
ENDBRANCH  10  15
ENDBRANCH   3   5
BRANCH   2  18
ATOM     18  C   UNL d   1      -2.742  -0.132   0.280  0.00  0.00     0.098 A 
ATOM     19  C   UNL d   1      -3.587  -1.255   0.106  0.00  0.00     0.086 A 
ATOM     20  C   UNL d   1      -4.671  -1.179  -0.782  0.00  0.00     0.038 A 
ATOM     21  C   UNL d   1      -4.925  -0.013  -1.498  0.00  0.00     0.005 A 
ATOM     22  C   UNL d   1      -4.099   1.095  -1.333  0.00  0.00     0.038 A 
ATOM     23  C   UNL d   1      -3.009   1.053  -0.450  0.00  0.00     0.086 A 
BRANCH  19  24
ATOM     24  O   UNL d   1      -3.331  -2.443   0.804  0.00  0.00    -0.355 OA
ATOM     25  C   UNL d   1      -4.135  -3.608   0.670  0.00  0.00     0.210 C 
ENDBRANCH  19  24
BRANCH  23  26
ATOM     26  O   UNL d   1      -2.200   2.184  -0.277  0.00  0.00    -0.355 OA
ATOM     27  C   UNL d   1      -2.412   3.402  -0.978  0.00  0.00     0.210 C 
ENDBRANCH  23  26
ENDBRANCH   2  18
TORSDOF 5
