REMARK  7 active torsions:
REMARK  status: ('A' for Active; 'I' for Inactive)
REMARK    1  A    between atoms: O_2  and  C_3 
REMARK    2  A    between atoms: C_3  and  C_4 
REMARK    3  A    between atoms: CA_5  and  C_29 
REMARK    4  A    between atoms: CA_8  and  N_11 
REMARK       I    between atoms: N_11  and  C_13 
REMARK    5  A    between atoms: C_13  and  C_15 
REMARK    6  A    between atoms: C_15  and  C_20 
REMARK    7  A    between atoms: N_16  and  O_18 
ROOT
ATOM      1  N   UNL d   1      -0.902   0.620  -0.619  0.00  0.00    -0.340 N 
ATOM      2  HN  UNL d   1      -0.983   1.608  -0.381  1.00  0.00     0.163 HD
ATOM      3  C   UNL d   1      -2.015  -0.242  -0.363  0.00  0.00     0.273 C 
ATOM      4  O   UNL d   1      -1.946  -1.459  -0.687  0.00  0.00    -0.266 OA
ENDROOT
BRANCH   1   5
ATOM      5  CA  UNL d   1       0.341   0.142  -1.205  0.00  0.00     0.211 A 
ATOM      6  C   UNL d   1       1.178  -0.418  -0.185  0.00  0.00     0.187 A 
ATOM      7  N   UNL d   1       2.186   0.606  -0.324  0.00  0.00    -0.293 N 
ATOM      8  S   UNL d   1       1.849  -2.072  -0.635  0.00  0.00    -0.136 SA
ATOM      9  CA  UNL d   1       3.594   0.553  -0.130  0.00  0.00     0.121 C 
ATOM     10  C   UNL d   1       1.313   1.275  -1.309  0.00  0.00     0.251 A 
ATOM     11  C   UNL d   1       4.209  -0.572  -0.537  0.00  0.00    -0.013 C 
ATOM     12  C   UNL d   1       3.441  -1.545  -1.390  0.00  0.00     0.115 C 
ATOM     13  O   UNL d   1       1.387   2.328  -1.995  0.00  0.00    -0.271 OA
BRANCH   9  14
ATOM     14  C   UNL d   1       4.271   1.696   0.521  0.00  0.00     0.227 C 
ATOM     15  O   UNL d   1       3.580   2.631   1.006  0.00  0.00    -0.643 OA
ATOM     16  OXT UNL d   1       5.657   1.782   0.587  0.00  0.00    -0.643 OA
ENDBRANCH   9  14
BRANCH  11  17
ATOM     17  C   UNL d   1       5.650  -0.870  -0.279  0.00  0.00     0.204 C 
BRANCH  17  18
ATOM     18  O   UNL d   1       5.835  -1.188   1.067  0.00  0.00    -0.392 OA
ATOM     19  C   UNL d   1       7.205  -1.413   1.188  0.00  0.00     0.201 C 
ENDBRANCH  17  18
ENDBRANCH  11  17
ENDBRANCH   1   5
BRANCH   3  20
ATOM     20  C   UNL d   1      -3.251   0.290   0.271  0.00  0.00     0.149 C 
ATOM     21  N   UNL d   1      -3.214   1.332   1.049  0.00  0.00    -0.260 N 
ATOM     22  HN  UNL d   1      -4.091   1.671   1.445  1.00  0.00     0.194 HD
BRANCH  21  23
ATOM     23  O   UNL d   1      -2.052   1.999   1.364  0.00  0.00    -0.285 OA
ATOM     24  C   UNL d   1      -2.092   3.127   2.218  0.00  0.00     0.237 C 
ENDBRANCH  21  23
BRANCH  20  25
ATOM     25  C   UNL d   1      -4.564  -0.357   0.046  0.00  0.00     0.075 A 
ATOM     26  N   UNL d   1      -5.670   0.032   0.741  0.00  0.00    -0.337 N 
ATOM     27  C   UNL d   1      -6.758  -0.669   0.373  0.00  0.00     0.159 A 
ATOM     28  HN  UNL d   1      -5.673   0.764   1.451  1.00  0.00     0.168 HD
ATOM     29  S   UNL d   1      -6.409  -1.787  -0.820  0.00  0.00    -0.067 SA
ATOM     30  N   UNL d   1      -8.047  -0.468   0.940  0.00  0.00    -0.074 NA
ATOM     31  C   UNL d   1      -4.775  -1.375  -0.893  0.00  0.00     0.085 A 
ENDBRANCH  20  25
ENDBRANCH   3  20
TORSDOF 7
