REMARK  0 active torsions:
REMARK  status: ('A' for Active; 'I' for Inactive)
ROOT
ATOM      1  N   UNL d   1      -0.199   2.655   0.200  0.00  0.00    -0.101 NA
ATOM      2  C   UNL d   1      -0.081   1.236   0.087  0.00  0.00     0.067 A 
ATOM      3  C   UNL d   1      -1.234   0.440  -0.022  0.00  0.00    -0.010 A 
ATOM      4  C   UNL d   1      -2.598   1.079   0.057  0.00  0.00     0.042 C 
ATOM      5  C   UNL d   1      -3.699   0.176  -0.490  0.00  0.00     0.005 C 
ATOM      6  C   UNL d   1      -3.588  -1.200   0.149  0.00  0.00     0.006 C 
ATOM      7  C   UNL d   1      -2.287  -1.862  -0.290  0.00  0.00     0.057 C 
ATOM      8  C   UNL d   1      -1.094  -0.965  -0.102  0.00  0.00     0.018 A 
ATOM      9  N   UNL d   1       0.144  -1.524  -0.110  0.00  0.00    -0.358 N 
ATOM     10  HN  UNL d   1       0.229  -2.538  -0.191  1.00  0.00     0.166 HD
ATOM     11  C   UNL d   1       1.273  -0.776  -0.012  0.00  0.00     0.044 A 
ATOM     12  C   UNL d   1       2.524  -1.400  -0.015  0.00  0.00     0.030 A 
ATOM     13  C   UNL d   1       3.689  -0.634   0.085  0.00  0.00     0.002 A 
ATOM     14  C   UNL d   1       3.607   0.758   0.187  0.00  0.00     0.001 A 
ATOM     15  C   UNL d   1       2.359   1.389   0.189  0.00  0.00     0.015 A 
ATOM     16  C   UNL d   1       1.184   0.629   0.088  0.00  0.00     0.015 A 
ENDROOT
TORSDOF 0
