REMARK  6 active torsions:
REMARK  status: ('A' for Active; 'I' for Inactive)
REMARK    1  A    between atoms: C_2  and  C_3 
REMARK    2  A    between atoms: C_2  and  C_9 
REMARK    3  A    between atoms: C_2  and  O_16 
REMARK    4  A    between atoms: O_16  and  C_17 
REMARK    5  A    between atoms: C_17  and  C_18 
REMARK    6  A    between atoms: C_19  and  C_18 
ROOT
ATOM      1  C   UNL d   1      -1.276  -1.268  -2.318  0.00  0.00     0.057 C 
ATOM      2  C   UNL d   1      -0.780  -0.319  -1.211  0.00  0.00     0.111 C 
ENDROOT
BRANCH   2   3
ATOM      3  C   UNL d   1      -0.720  -1.002   0.154  0.00  0.00    -0.020 A 
ATOM      4  C   UNL d   1      -0.883  -2.392   0.294  0.00  0.00     0.010 A 
ATOM      5  C   UNL d   1      -0.782  -2.998   1.549  0.00  0.00     0.001 A 
ATOM      6  C   UNL d   1      -0.510  -2.225   2.679  0.00  0.00     0.000 A 
ATOM      7  C   UNL d   1      -0.336  -0.846   2.554  0.00  0.00     0.001 A 
ATOM      8  C   UNL d   1      -0.436  -0.239   1.300  0.00  0.00     0.010 A 
ENDBRANCH   2   3
BRANCH   2   9
ATOM      9  C   UNL d   1      -1.780   0.823  -1.131  0.00  0.00    -0.019 A 
ATOM     10  C   UNL d   1      -1.355   2.161  -1.194  0.00  0.00     0.012 A 
ATOM     11  C   UNL d   1      -2.274   3.208  -1.085  0.00  0.00     0.024 A 
ATOM     12  C   UNL d   1      -3.631   2.929  -0.906  0.00  0.00     0.034 A 
ATOM     13  C   UNL d   1      -4.068   1.606  -0.830  0.00  0.00     0.024 A 
ATOM     14 CL   UNL d   1      -4.782   4.241  -0.771  0.00  0.00    -0.084 Cl
ATOM     15  C   UNL d   1      -3.148   0.559  -0.938  0.00  0.00     0.012 A 
ENDBRANCH   2   9
BRANCH   2  16
ATOM     16  O   UNL d   1       0.495   0.210  -1.555  0.00  0.00    -0.371 OA
BRANCH  16  17
ATOM     17  C   UNL d   1       1.436  -0.827  -1.718  0.00  0.00     0.172 C 
BRANCH  17  18
ATOM     18  C   UNL d   1       2.788  -0.385  -1.187  0.00  0.00     0.062 C 
BRANCH  18  19
ATOM     19  C   UNL d   1       2.793  -0.385   0.342  0.00  0.00     0.224 C 
ATOM     20  C   UNL d   1       2.850  -1.771   0.936  0.00  0.00     0.037 C 
ATOM     21  C   UNL d   1       3.378  -1.530   2.327  0.00  0.00     0.032 C 
ATOM     22  C   UNL d   1       4.013  -0.146   2.293  0.00  0.00     0.272 C 
ATOM     23  N   UNL d   1       3.864   0.410   0.952  0.00  0.00     0.088 N 
ATOM     24  C   UNL d   1       5.142   0.186   0.279  0.00  0.00     0.310 C 
ENDBRANCH  18  19
ENDBRANCH  17  18
ENDBRANCH  16  17
ENDBRANCH   2  16
TORSDOF 6
