REMARK  Name = fda_5561
REMARK  5 active torsions:
REMARK  status: ('A' for Active; 'I' for Inactive)
REMARK    1  A    between atoms: N_7  and  S_8
REMARK    2  A    between atoms: S_8  and  C_11
REMARK    3  A    between atoms: C_14  and  N_17
REMARK    4  A    between atoms: N_18  and  C_19
REMARK    5  A    between atoms: C_23  and  C_25
REMARK                            x       y       z     vdW  Elec       q    Type
REMARK                         _______ _______ _______ _____ _____    ______ ____
ROOT
ATOM      1  C   UNL A   1       2.675  -0.278   1.831  0.00  0.00    +0.127 A 
ATOM      2  C   UNL A   1       2.090   0.884   1.318  0.00  0.00    +0.022 A 
ATOM      3  C   UNL A   1       0.736   0.893   0.973  0.00  0.00    +0.022 A 
ATOM      4  C   UNL A   1      -0.042  -0.264   1.138  0.00  0.00    +0.103 A 
ATOM      5  C   UNL A   1       0.547  -1.423   1.652  0.00  0.00    +0.022 A 
ATOM      6  C   UNL A   1       1.901  -1.431   1.998  0.00  0.00    +0.022 A 
ENDROOT
BRANCH   1   7
ATOM      7  S   UNL A   1       4.377  -0.300   2.256  0.00  0.00    +0.094 S 
ATOM      8  O   UNL A   1       5.059   0.941   1.751  0.00  0.00    -0.148 OA
ATOM      9  O   UNL A   1       4.510  -0.357   3.752  0.00  0.00    -0.148 OA
BRANCH   7  16
ATOM     10  C   UNL A   1       5.753  -3.346  -1.710  0.00  0.00    +0.005 A 
ATOM     11  C   UNL A   1       5.132  -2.446  -2.578  0.00  0.00    +0.021 A 
ATOM     12  C   UNL A   1       4.522  -1.305  -2.053  0.00  0.00    +0.100 A 
ATOM     13  N   UNL A   1       4.537  -1.080  -0.712  0.00  0.00    -0.226 NA
ATOM     14  C   UNL A   1       5.137  -1.945   0.153  0.00  0.00    +0.172 A 
ATOM     15  C   UNL A   1       5.758  -3.097  -0.336  0.00  0.00    +0.038 A 
ATOM     16  N   UNL A   1       5.138  -1.690   1.558  0.00  0.00    -0.077 NA
ENDBRANCH   7  16
ENDBRANCH   1   7
BRANCH   4  17
ATOM     17  N   UNL A   1      -1.429  -0.280   0.791  0.00  0.00    -0.148 NA
ATOM     18  N   UNL A   1      -2.013   0.748   0.319  0.00  0.00    -0.148 NA
BRANCH  18  19
ATOM     19  C   UNL A   1      -3.400   0.731  -0.028  0.00  0.00    +0.103 A 
ATOM     20  C   UNL A   1      -4.177  -0.422   0.137  0.00  0.00    +0.024 A 
ATOM     21  C   UNL A   1      -5.529  -0.411  -0.210  0.00  0.00    +0.044 A 
ATOM     22  C   UNL A   1      -6.119   0.747  -0.724  0.00  0.00    +0.202 A 
ATOM     23  C   UNL A   1      -5.346   1.917  -0.896  0.00  0.00    +0.120 A 
ATOM     24  C   UNL A   1      -3.988   1.889  -0.542  0.00  0.00    +0.031 A 
ATOM     25  O   UNL A   1      -7.468   0.715  -1.057  0.00  0.00    -0.286 OA
BRANCH  23  26
ATOM     26  C   UNL A   1      -5.918   3.171  -1.436  0.00  0.00    +0.391 C 
ATOM     27  O   UNL A   1      -5.190   4.191  -1.572  0.00  0.00    -0.240 OA
ATOM     28  O   UNL A   1      -7.256   3.251  -1.801  0.00  0.00    -0.240 OA
ENDBRANCH  23  26
ENDBRANCH  18  19
ENDBRANCH   4  17
TORSDOF 5
