REMARK  5 active torsions:
REMARK  status: ('A' for Active; 'I' for Inactive)
REMARK    1  A    between atoms: C_2  and  N_22 
REMARK    2  A    between atoms: C_3  and  N_22 
REMARK    3  A    between atoms: C_5  and  C_7 
REMARK    4  A    between atoms: C_5  and  N_22 
REMARK    5  A    between atoms: C_7  and  N_8 
ROOT
ATOM      1  N   UNL d   1      -0.451  -0.343   0.300  0.00  0.00    -0.343 N 
ATOM      2  C   UNL d   1      -1.412  -1.198  -0.355  0.00  0.00     0.052 A 
ATOM      3  C   UNL d   1      -0.988  -2.230  -1.205  0.00  0.00     0.031 A 
ATOM      4  C   UNL d   1      -1.915  -2.959  -1.955  0.00  0.00     0.002 A 
ATOM      5  C   UNL d   1      -3.276  -2.658  -1.868  0.00  0.00     0.002 A 
ATOM      6  C   UNL d   1      -3.713  -1.646  -1.011  0.00  0.00     0.021 A 
ATOM      7  C   UNL d   1      -2.790  -0.925  -0.248  0.00  0.00     0.032 A 
ATOM      8  S   UNL d   1      -3.384   0.220   0.993  0.00  0.00    -0.086 SA
ATOM      9  C   UNL d   1      -2.120   1.445   0.662  0.00  0.00     0.032 A 
ATOM     10  C   UNL d   1      -0.777   1.050   0.507  0.00  0.00     0.052 A 
ATOM     11  C   UNL d   1       0.213   2.040   0.411  0.00  0.00     0.031 A 
ATOM     12  C   UNL d   1      -0.127   3.394   0.454  0.00  0.00     0.002 A 
ATOM     13  C   UNL d   1      -1.465   3.775   0.581  0.00  0.00     0.002 A 
ATOM     14  C   UNL d   1      -2.460   2.800   0.690  0.00  0.00     0.021 A 
ENDROOT
BRANCH   1  15
ATOM     15  C   UNL d   1       0.855  -0.883   0.693  0.00  0.00     0.165 C 
BRANCH  15  16
ATOM     16  C   UNL d   1       1.995  -0.355  -0.189  0.00  0.00     0.237 C 
ATOM     17  C   UNL d   1       1.873  -0.969  -1.579  0.00  0.00     0.044 C 
BRANCH  16  18
ATOM     18  N   UNL d   1       3.306  -0.673   0.405  0.00  0.00     0.093 N 
BRANCH  18  19
ATOM     19  C   UNL d   1       4.376  -0.116  -0.422  0.00  0.00     0.268 C 
ATOM     20  C   UNL d   1       5.561  -1.062  -0.438  0.00  0.00     0.037 C 
ENDBRANCH  18  19
BRANCH  18  21
ATOM     21  C   UNL d   1       3.431  -0.114   1.762  0.00  0.00     0.268 C 
ATOM     22  C   UNL d   1       3.269   1.405   1.811  0.00  0.00     0.037 C 
ENDBRANCH  18  21
ENDBRANCH  16  18
ENDBRANCH  15  16
ENDBRANCH   1  15
TORSDOF 5
