REMARK  15 active torsions:
REMARK  status: ('A' for Active; 'I' for Inactive)
REMARK    1  A    between atoms: C_2  and  C_3 
REMARK    2  A    between atoms: C_3  and  C_4 
REMARK    3  A    between atoms: C_4  and  C_5 
REMARK    4  A    between atoms: C_5  and  C_6 
REMARK    5  A    between atoms: C_6  and  C_7 
REMARK    6  A    between atoms: C_6  and  O_25 
REMARK    7  A    between atoms: C_9  and  C_8 
REMARK    8  A    between atoms: C_10  and  O_23 
REMARK    9  A    between atoms: C_14  and  C_15 
REMARK   10  A    between atoms: C_15  and  C_16 
REMARK   11  A    between atoms: C_16  and  C_17 
REMARK   12  A    between atoms: C_17  and  C_18 
REMARK   13  A    between atoms: C_18  and  C_19 
REMARK   14  A    between atoms: C_19  and  C_20 
REMARK   15  A    between atoms: C_20  and  C_21 
ROOT
ATOM      1  C   UNL d   1       0.856   1.176   1.034  0.00  0.00     0.048 C 
ATOM      2  C   UNL d   1       0.427   1.500   2.473  0.00  0.00     0.133 C 
ATOM      3  C   UNL d   1      -0.950   2.145   2.366  0.00  0.00     0.111 C 
ATOM      4  C   UNL d   1      -1.420   1.791   1.002  0.00  0.00     0.134 C 
ATOM      5  O   UNL d   1      -2.528   2.091   0.587  0.00  0.00    -0.297 OA
ATOM      6  C   UNL d   1      -0.415   1.073   0.180  0.00  0.00     0.065 C 
ENDROOT
BRANCH   1   7
ATOM      7  C   UNL d   1       1.847   0.054   0.910  0.00  0.00    -0.020 C 
ATOM      8  C   UNL d   1       2.512  -0.142  -0.227  0.00  0.00     0.001 C 
BRANCH   8   9
ATOM      9  C   UNL d   1       3.496  -1.261  -0.351  0.00  0.00     0.140 C 
BRANCH   9  10
ATOM     10  C   UNL d   1       3.950  -1.443  -1.799  0.00  0.00     0.036 C 
BRANCH  10  11
ATOM     11  C   UNL d   1       4.676  -0.222  -2.362  0.00  0.00     0.003 C 
BRANCH  11  12
ATOM     12  C   UNL d   1       6.142  -0.203  -1.947  0.00  0.00    -0.000 C 
BRANCH  12  13
ATOM     13  C   UNL d   1       6.942  -1.263  -2.689  0.00  0.00    -0.005 C 
ATOM     14  C   UNL d   1       7.173  -0.842  -4.128  0.00  0.00     0.005 C 
ENDBRANCH  12  13
ENDBRANCH  11  12
ENDBRANCH  10  11
ENDBRANCH   9  10
BRANCH   9  15
ATOM     15  O   UNL d   1       4.590  -1.046   0.490  0.00  0.00    -0.392 OA
ATOM     16  HO  UNL d   1       4.309  -0.933   1.391  1.00  0.00     0.210 HD
ENDBRANCH   9  15
ENDBRANCH   8   9
ENDBRANCH   1   7
BRANCH   6  17
ATOM     17  C   UNL d   1      -0.866  -0.355  -0.188  0.00  0.00     0.013 C 
BRANCH  17  18
ATOM     18  C   UNL d   1      -1.100  -1.283   1.006  0.00  0.00     0.001 C 
BRANCH  18  19
ATOM     19  C   UNL d   1      -2.486  -1.099   1.601  0.00  0.00     0.000 C 
BRANCH  19  20
ATOM     20  C   UNL d   1      -3.545  -1.646   0.664  0.00  0.00     0.001 C 
BRANCH  20  21
ATOM     21  C   UNL d   1      -4.920  -1.395   1.254  0.00  0.00     0.010 C 
BRANCH  21  22
ATOM     22  C   UNL d   1      -6.003  -1.875   0.303  0.00  0.00     0.113 C 
BRANCH  22  23
ATOM     23  C   UNL d   1      -6.171  -0.921  -0.830  0.00  0.00     0.172 C 
ATOM     24  O   UNL d   1      -5.626  -1.157  -1.939  0.00  0.00    -0.648 OA
ATOM     25  O   UNL d   1      -6.906   0.245  -0.654  0.00  0.00    -0.648 OA
ENDBRANCH  22  23
ENDBRANCH  21  22
ENDBRANCH  20  21
ENDBRANCH  19  20
ENDBRANCH  18  19
ENDBRANCH  17  18
ENDBRANCH   6  17
BRANCH   2  26
ATOM     26  O   UNL d   1       0.325   0.338   3.243  0.00  0.00    -0.394 OA
ATOM     27  HO  UNL d   1       0.060   0.539   4.132  1.00  0.00     0.210 HD
ENDBRANCH   2  26
TORSDOF 15
