REMARK  7 active torsions:
REMARK  status: ('A' for Active; 'I' for Inactive)
REMARK    1  A    between atoms: C_16  and  O_35 
REMARK    2  A    between atoms: C_19  and  C_20 
REMARK    3  A    between atoms: C_19  and  O_25 
REMARK    4  A    between atoms: C_20  and  C_22 
REMARK    5  A    between atoms: C_22  and  O_23 
REMARK    6  A    between atoms: O_25  and  C_26 
REMARK    7  A    between atoms: C_26  and  C_28 
ROOT
ATOM      1  C   UNL d   1       1.772   1.218   3.173  0.00  0.00     0.013 C 
ATOM      2  C   UNL d   1       1.287   0.194   2.155  0.00  0.00     0.026 C 
ATOM      3  C   UNL d   1      -0.208  -0.078   2.336  0.00  0.00     0.013 C 
ATOM      4  C   UNL d   1      -0.773   0.107   0.948  0.00  0.00     0.005 C 
ATOM      5  C   UNL d   1      -2.174  -0.388   0.574  0.00  0.00     0.035 C 
ATOM      6  C   UNL d   1      -2.645  -1.674   1.278  0.00  0.00     0.013 C 
ATOM      7  C   UNL d   1      -3.901  -2.282   0.617  0.00  0.00     0.036 C 
ATOM      8  C   UNL d   1      -4.667  -1.249  -0.162  0.00  0.00    -0.061 C 
ATOM      9  C   UNL d   1      -5.929  -0.985   0.191  0.00  0.00     0.058 C 
ATOM     10  C   UNL d   1      -6.595   0.212  -0.336  0.00  0.00     0.172 C 
ATOM     11  O   UNL d   1      -7.830   0.383  -0.169  0.00  0.00    -0.289 OA
ATOM     12  C   UNL d   1      -5.772   1.259  -0.952  0.00  0.00     0.052 C 
ATOM     13  C   UNL d   1      -4.513   0.985  -1.307  0.00  0.00    -0.006 C 
ATOM     14  C   UNL d   1      -3.942  -0.420  -1.235  0.00  0.00     0.036 C 
ATOM     15  C   UNL d   1      -2.397  -0.449  -0.959  0.00  0.00     0.147 C 
ATOM     16  C   UNL d   1      -1.556   0.650  -1.674  0.00  0.00     0.160 C 
ATOM     17  C   UNL d   1      -0.036   0.454  -1.444  0.00  0.00     0.048 C 
ATOM     18  C   UNL d   1       0.338  -0.127  -0.056  0.00  0.00     0.002 C 
ATOM     19  C   UNL d   1       1.543   0.544   0.652  0.00  0.00     0.144 C 
ATOM     20  C   UNL d   1       0.587  -1.632  -0.216  0.00  0.00     0.019 C 
ATOM     21  F   UNL d   1      -1.915  -1.672  -1.418  0.00  0.00    -0.238 F 
ATOM     22  C   UNL d   1      -4.232  -1.062  -2.589  0.00  0.00     0.028 C 
ENDROOT
BRANCH  19  23
ATOM     23  C   UNL d   1       1.549   2.054   0.383  0.00  0.00     0.186 C 
ATOM     24  O   UNL d   1       0.691   2.771   0.877  0.00  0.00    -0.292 OA
BRANCH  23  25
ATOM     25  C   UNL d   1       2.563   2.674  -0.528  0.00  0.00     0.245 C 
BRANCH  25  26
ATOM     26  O   UNL d   1       1.930   3.212  -1.648  0.00  0.00    -0.393 OA
ATOM     27  HO  UNL d   1       2.573   3.605  -2.226  1.00  0.00     0.209 HD
ENDBRANCH  25  26
ENDBRANCH  23  25
ENDBRANCH  19  23
BRANCH  19  28
ATOM     28  O   UNL d   1       2.763  -0.063   0.196  0.00  0.00    -0.297 OA
BRANCH  28  29
ATOM     29  C   UNL d   1       4.046   0.182   0.711  0.00  0.00     0.294 C 
ATOM     30  O   UNL d   1       4.226   1.051   1.607  0.00  0.00    -0.259 OA
BRANCH  29  31
ATOM     31  C   UNL d   1       5.192  -0.574   0.183  0.00  0.00     0.039 A 
ATOM     32  C   UNL d   1       6.486  -0.343   0.672  0.00  0.00     0.017 A 
ATOM     33  C   UNL d   1       7.571  -1.065   0.166  0.00  0.00     0.001 A 
ATOM     34  C   UNL d   1       7.369  -2.022  -0.832  0.00  0.00     0.000 A 
ATOM     35  C   UNL d   1       6.083  -2.257  -1.325  0.00  0.00     0.001 A 
ATOM     36  C   UNL d   1       4.998  -1.535  -0.819  0.00  0.00     0.017 A 
ENDBRANCH  29  31
ENDBRANCH  28  29
ENDBRANCH  19  28
BRANCH  16  37
ATOM     37  O   UNL d   1      -1.907   1.929  -1.236  0.00  0.00    -0.392 OA
ATOM     38  HO  UNL d   1      -1.394   2.599  -1.672  1.00  0.00     0.210 HD
ENDBRANCH  16  37
TORSDOF 7
