REMARK  4 active torsions:
REMARK  status: ('A' for Active; 'I' for Inactive)
REMARK    1  A    between atoms: C_1  and  C_2 
REMARK    2  A    between atoms: C_1  and  C_6 
REMARK    3  A    between atoms: C_2  and  C_3 
REMARK    4  A    between atoms: C_6  and  C_7 
ROOT
ATOM      1  C   UNL d   1       0.328  -0.773  -0.538  0.00  0.00     0.021 C 
ENDROOT
BRANCH   1   2
ATOM      2  C   UNL d   1      -1.079  -1.347  -0.506  0.00  0.00     0.114 C 
BRANCH   2   3
ATOM      3  C   UNL d   1      -2.095  -0.269  -0.676  0.00  0.00     0.172 C 
ATOM      4  O   UNL d   1      -2.641   0.352   0.439  0.00  0.00    -0.648 OA
ATOM      5  O   UNL d   1      -2.436   0.099  -1.830  0.00  0.00    -0.648 OA
ENDBRANCH   2   3
ENDBRANCH   1   2
BRANCH   1   6
ATOM      6  C   UNL d   1       0.655  -0.092   0.779  0.00  0.00     0.114 C 
BRANCH   6   7
ATOM      7  C   UNL d   1       2.027   0.480   0.724  0.00  0.00     0.172 C 
ATOM      8  O   UNL d   1       2.232   1.743   0.184  0.00  0.00    -0.648 OA
ATOM      9  O   UNL d   1       3.007  -0.193   1.137  0.00  0.00    -0.648 OA
ENDBRANCH   6   7
ENDBRANCH   1   6
TORSDOF 4
