REMARK  7 active torsions:
REMARK  status: ('A' for Active; 'I' for Inactive)
REMARK    1  A    between atoms: CA_5  and  N_1 
REMARK    2  A    between atoms: CA_5  and  C_6 
REMARK    3  A    between atoms: CA_5  and  C_26 
REMARK    4  A    between atoms: C_6  and  C_7 
REMARK    5  A    between atoms: C_11  and  O_12 
REMARK    6  A    between atoms: O_12  and  C_13 
REMARK    7  A    between atoms: C_17  and  O_18 
ROOT
ATOM      1  C   UNL d   1       2.482   0.367   0.237  0.00  0.00    -0.053 A 
ATOM      2  C   UNL d   1       2.136  -0.867   0.793  0.00  0.00     0.028 A 
ATOM      3  C   UNL d   1       0.905  -1.454   0.492  0.00  0.00     0.042 A 
ATOM      4  I   UNL d   1       0.427  -3.313   1.369  0.00  0.00    -0.042 I 
ATOM      5  C   UNL d   1       0.004  -0.801  -0.366  0.00  0.00     0.109 A 
ATOM      6  C   UNL d   1       0.364   0.433  -0.941  0.00  0.00     0.042 A 
ATOM      7  I   UNL d   1      -0.880   1.435  -2.325  0.00  0.00    -0.042 I 
ATOM      8  C   UNL d   1       1.601   1.009  -0.636  0.00  0.00     0.028 A 
ENDROOT
BRANCH   5   9
ATOM      9  O   UNL d   1      -1.229  -1.397  -0.652  0.00  0.00    -0.308 OA
BRANCH   9  10
ATOM     10  C   UNL d   1      -2.452  -0.902  -0.185  0.00  0.00     0.078 A 
ATOM     11  C   UNL d   1      -3.636  -1.490  -0.638  0.00  0.00     0.058 A 
ATOM     12  C   UNL d   1      -4.876  -1.025  -0.189  0.00  0.00     0.043 A 
ATOM     13  I   UNL d   1      -6.629  -1.950  -0.912  0.00  0.00    -0.042 I 
ATOM     14  C   UNL d   1      -4.937   0.038   0.725  0.00  0.00     0.098 A 
ATOM     15  C   UNL d   1      -3.751   0.628   1.186  0.00  0.00     0.043 A 
ATOM     16  I   UNL d   1      -3.784   2.228   2.561  0.00  0.00    -0.042 I 
ATOM     17  C   UNL d   1      -2.517   0.157   0.734  0.00  0.00     0.058 A 
BRANCH  14  18
ATOM     18  O   UNL d   1      -6.168   0.504   1.172  0.00  0.00    -0.358 OA
ATOM     19  HO  UNL d   1      -6.209   1.224   1.790  1.00  0.00     0.217 HD
ENDBRANCH  14  18
ENDBRANCH   9  10
ENDBRANCH   5   9
BRANCH   1  20
ATOM     20  C   UNL d   1       3.805   0.981   0.549  0.00  0.00     0.082 C 
BRANCH  20  21
ATOM     21  CA  UNL d   1       4.826   0.657  -0.534  0.00  0.00     0.287 C 
BRANCH  21  22
ATOM     22  N   UNL d   1       5.235  -0.735  -0.441  0.00  0.00    -0.065 N 
ATOM     23  HN3 UNL d   1       5.581  -0.969   0.490  1.00  0.00     0.275 HD
ATOM     24  HN2 UNL d   1       4.437  -1.369  -0.469  1.00  0.00     0.275 HD
ATOM     25  HN1 UNL d   1       5.919  -0.952  -1.166  1.00  0.00     0.275 HD
ENDBRANCH  21  22
BRANCH  21  26
ATOM     26  C   UNL d   1       6.017   1.547  -0.401  0.00  0.00     0.204 C 
ATOM     27  O   UNL d   1       6.283   2.489  -1.385  0.00  0.00    -0.646 OA
ATOM     28  OXT UNL d   1       6.774   1.460   0.602  0.00  0.00    -0.646 OA
ENDBRANCH  21  26
ENDBRANCH  20  21
ENDBRANCH   1  20
TORSDOF 7
