REMARK  1 active torsions:
REMARK  status: ('A' for Active; 'I' for Inactive)
REMARK    1  A    between atoms: C_10  and  O_11 
ROOT
ATOM      1  C   UNL d   1      -2.366  -0.721   1.375  0.00  0.00     0.018 C 
ATOM      2  C   UNL d   1      -2.595  -0.323  -0.093  0.00  0.00    -0.014 C 
ATOM      3  C   UNL d   1      -2.186  -1.460  -1.026  0.00  0.00     0.012 C 
ATOM      4  C   UNL d   1      -0.681  -1.748  -0.879  0.00  0.00     0.006 C 
ATOM      5  C   UNL d   1       0.180  -0.481  -1.062  0.00  0.00    -0.002 C 
ATOM      6  C   UNL d   1      -0.306   0.734  -0.233  0.00  0.00    -0.005 C 
ATOM      7  C   UNL d   1      -1.802   0.903  -0.479  0.00  0.00     0.001 C 
ATOM      8  C   UNL d   1      -2.527   2.070   0.156  0.00  0.00     0.008 C 
ATOM      9  C   UNL d   1      -3.997   1.648   0.111  0.00  0.00     0.033 C 
ATOM     10  C   UNL d   1      -4.017   0.175  -0.310  0.00  0.00     0.126 C 
ATOM     11  C   UNL d   1       0.453   2.025  -0.610  0.00  0.00     0.010 C 
ATOM     12  C   UNL d   1       1.801   1.800  -1.313  0.00  0.00     0.035 C 
ATOM     13  C   UNL d   1       2.456   0.552  -0.818  0.00  0.00    -0.072 C 
ATOM     14  C   UNL d   1       3.678   0.611  -0.284  0.00  0.00     0.053 C 
ATOM     15  C   UNL d   1       4.272  -0.573   0.360  0.00  0.00     0.149 C 
ATOM     16  O   UNL d   1       5.459  -0.528   0.776  0.00  0.00    -0.293 OA
ATOM     17  C   UNL d   1       3.477  -1.840   0.509  0.00  0.00     0.084 C 
ATOM     18  C   UNL d   1       1.976  -1.556   0.425  0.00  0.00     0.017 C 
ATOM     19  C   UNL d   1       1.681  -0.748  -0.844  0.00  0.00     0.019 C 
ENDROOT
BRANCH  10  20
ATOM     20  O   UNL d   1      -4.956  -0.541   0.437  0.00  0.00    -0.395 OA
ATOM     21  HO  UNL d   1      -5.843  -0.230   0.301  1.00  0.00     0.210 HD
ENDBRANCH  10  20
TORSDOF 1
