REMARK  1 active torsions:
REMARK  status: ('A' for Active; 'I' for Inactive)
REMARK    1  A    between atoms: C_7  and  C_14 
ROOT
ATOM      1  C   UNL d   1      -2.497  -3.712   1.244  0.00  0.00     0.310 C 
ATOM      2  C   UNL d   1      -3.302  -1.725   0.301  0.00  0.00     0.277 C 
ATOM      3  C   UNL d   1      -2.993  -0.504  -0.577  0.00  0.00     0.070 C 
ATOM      4  C   UNL d   1      -1.711   0.130  -0.129  0.00  0.00    -0.041 A 
ATOM      5  C   UNL d   1      -0.817  -0.490   0.636  0.00  0.00    -0.032 A 
ATOM      6  C   UNL d   1      -1.111  -1.824   1.259  0.00  0.00     0.307 C 
ATOM      7  C   UNL d   1       0.390   0.371   0.912  0.00  0.00     0.083 A 
ATOM      8  C   UNL d   1       0.039   1.588   0.108  0.00  0.00    -0.035 A 
ATOM      9  C   UNL d   1      -1.189   1.428  -0.496  0.00  0.00    -0.022 A 
ATOM     10  C   UNL d   1      -1.752   2.422  -1.296  0.00  0.00     0.012 A 
ATOM     11  C   UNL d   1      -1.027   3.611  -1.473  0.00  0.00     0.001 A 
ATOM     12  C   UNL d   1       0.227   3.783  -0.853  0.00  0.00     0.001 A 
ATOM     13  C   UNL d   1       0.770   2.766  -0.051  0.00  0.00     0.009 A 
ATOM     14  N   UNL d   1      -2.103  -2.555   0.462  0.00  0.00     0.088 N 
ENDROOT
BRANCH   7  15
ATOM     15  C   UNL d   1       1.653  -0.277   0.421  0.00  0.00    -0.045 A 
ATOM     16  C   UNL d   1       2.705  -0.476   1.322  0.00  0.00     0.008 A 
ATOM     17  C   UNL d   1       3.893  -1.077   0.897  0.00  0.00     0.001 A 
ATOM     18  C   UNL d   1       4.035  -1.483  -0.433  0.00  0.00     0.000 A 
ATOM     19  C   UNL d   1       2.989  -1.288  -1.339  0.00  0.00     0.001 A 
ATOM     20  C   UNL d   1       1.801  -0.687  -0.915  0.00  0.00     0.008 A 
ENDBRANCH   7  15
TORSDOF 1
