REMARK  4 active torsions:
REMARK  status: ('A' for Active; 'I' for Inactive)
REMARK    1  A    between atoms: O_1  and  C_3 
REMARK    2  A    between atoms: C_6  and  C_9 
REMARK    3  A    between atoms: C_14  and  O_15 
REMARK    4  A    between atoms: C_18  and  O_19 
ROOT
ATOM      1  C   UNL d   1       0.621   0.325   0.092  0.00  0.00     0.048 A 
ATOM      2  C   UNL d   1       0.138   1.189   1.085  0.00  0.00     0.159 A 
ATOM      3  O   UNL d   1      -1.157   1.286   1.353  0.00  0.00    -0.321 OA
ATOM      4  C   UNL d   1      -2.074   0.580   0.706  0.00  0.00     0.094 A 
ATOM      5  C   UNL d   1      -3.420   0.741   1.046  0.00  0.00     0.074 A 
ATOM      6  C   UNL d   1      -4.405   0.011   0.384  0.00  0.00     0.071 A 
ATOM      7  C   UNL d   1      -4.051  -0.887  -0.623  0.00  0.00     0.074 A 
ATOM      8  C   UNL d   1      -2.711  -1.063  -0.979  0.00  0.00     0.085 A 
ATOM      9  C   UNL d   1      -1.700  -0.327  -0.314  0.00  0.00     0.082 A 
ATOM     10  C   UNL d   1      -0.326  -0.453  -0.617  0.00  0.00     0.200 A 
ATOM     11  O   UNL d   1       0.055  -1.262  -1.506  0.00  0.00    -0.286 OA
ENDROOT
BRANCH   1  12
ATOM     12  C   UNL d   1       2.092   0.272  -0.160  0.00  0.00    -0.020 A 
ATOM     13  C   UNL d   1       2.982   0.886   0.740  0.00  0.00     0.015 A 
ATOM     14  C   UNL d   1       4.362   0.857   0.517  0.00  0.00     0.037 A 
ATOM     15  C   UNL d   1       4.872   0.215  -0.613  0.00  0.00     0.065 A 
ATOM     16  C   UNL d   1       4.004  -0.396  -1.519  0.00  0.00     0.037 A 
ATOM     17  C   UNL d   1       2.625  -0.365  -1.294  0.00  0.00     0.015 A 
BRANCH  15  18
ATOM     18  O   UNL d   1       6.242   0.185  -0.835  0.00  0.00    -0.361 OA
ATOM     19  HO  UNL d   1       6.590  -0.252  -1.604  1.00  0.00     0.217 HD
ENDBRANCH  15  18
ENDBRANCH   1  12
BRANCH   8  20
ATOM     20  O   UNL d   1      -2.409  -1.969  -1.990  0.00  0.00    -0.360 OA
ATOM     21  HO  UNL d   1      -1.498  -2.089  -2.231  1.00  0.00     0.217 HD
ENDBRANCH   8  20
BRANCH   6  22
ATOM     22  O   UNL d   1      -5.740   0.176   0.727  0.00  0.00    -0.361 OA
ATOM     23  HO  UNL d   1      -6.412  -0.321   0.276  1.00  0.00     0.217 HD
ENDBRANCH   6  22
TORSDOF 4
