REMARK  0 active torsions:
REMARK  status: ('A' for Active; 'I' for Inactive)
ROOT
ATOM      1  C   UNL d   1       5.415   0.306   0.538  0.00  0.00     0.309 C 
ATOM      2  N   UNL d   1       4.008   0.266   0.891  0.00  0.00     0.084 N 
ATOM      3  C   UNL d   1       3.477  -0.985   0.353  0.00  0.00     0.276 C 
ATOM      4  C   UNL d   1       1.997  -1.122   0.706  0.00  0.00     0.065 C 
ATOM      5  C   UNL d   1       1.248   0.091   0.224  0.00  0.00    -0.065 C 
ATOM      6  C   UNL d   1       1.879   1.424   0.524  0.00  0.00     0.065 C 
ATOM      7  C   UNL d   1       3.368   1.374   0.186  0.00  0.00     0.276 C 
ATOM      8  C   UNL d   1      -0.003  -0.003  -0.287  0.00  0.00    -0.011 C 
ATOM      9  C   UNL d   1      -0.768   1.199  -0.677  0.00  0.00    -0.015 A 
ATOM     10  C   UNL d   1      -0.211   2.089  -1.609  0.00  0.00     0.013 A 
ATOM     11  C   UNL d   1      -0.884   3.258  -1.968  0.00  0.00     0.001 A 
ATOM     12  C   UNL d   1      -2.120   3.552  -1.394  0.00  0.00     0.001 A 
ATOM     13  C   UNL d   1      -2.688   2.670  -0.472  0.00  0.00     0.012 A 
ATOM     14  C   UNL d   1      -2.036   1.482  -0.122  0.00  0.00    -0.025 A 
ATOM     15  C   UNL d   1      -2.705   0.625   0.872  0.00  0.00     0.013 C 
ATOM     16  C   UNL d   1      -2.644  -0.706   0.967  0.00  0.00     0.013 C 
ATOM     17  C   UNL d   1      -1.892  -1.630   0.099  0.00  0.00    -0.025 A 
ATOM     18  C   UNL d   1      -2.430  -2.911  -0.075  0.00  0.00     0.012 A 
ATOM     19  C   UNL d   1      -1.778  -3.858  -0.867  0.00  0.00     0.001 A 
ATOM     20  C   UNL d   1      -0.571  -3.536  -1.486  0.00  0.00     0.001 A 
ATOM     21  C   UNL d   1      -0.010  -2.271  -1.299  0.00  0.00     0.013 A 
ATOM     22  C   UNL d   1      -0.652  -1.313  -0.498  0.00  0.00    -0.015 A 
ENDROOT
TORSDOF 0
