REMARK  10 active torsions:
REMARK  status: ('A' for Active; 'I' for Inactive)
REMARK    1  A    between atoms: C_2  and  N_4 
REMARK    2  A    between atoms: C_11  and  C_25 
REMARK    3  A    between atoms: C_12  and  C_13 
REMARK    4  A    between atoms: C_14  and  C_15 
REMARK    5  A    between atoms: C_15  and  C_16 
REMARK    6  A    between atoms: C_15  and  O_23 
REMARK    7  A    between atoms: C_16  and  C_17 
REMARK    8  A    between atoms: C_17  and  C_18 
REMARK    9  A    between atoms: C_17  and  O_21 
REMARK   10  A    between atoms: C_18  and  C_19 
ROOT
ATOM      1  N   UNL d   1      -1.953   1.460   0.479  0.00  0.00    -0.341 N 
ATOM      2  C   UNL d   1      -3.180   1.004   0.150  0.00  0.00     0.046 A 
ATOM      3  C   UNL d   1      -4.337   1.756  -0.070  0.00  0.00     0.030 A 
ATOM      4  C   UNL d   1      -5.515   1.068  -0.407  0.00  0.00     0.002 A 
ATOM      5  C   UNL d   1      -5.516  -0.337  -0.516  0.00  0.00     0.001 A 
ATOM      6  C   UNL d   1      -4.338  -1.070  -0.291  0.00  0.00     0.014 A 
ATOM      7  C   UNL d   1      -3.180  -0.365   0.043  0.00  0.00     0.004 A 
ATOM      8  C   UNL d   1      -1.893  -0.808   0.316  0.00  0.00     0.013 A 
ATOM      9  C   UNL d   1      -1.157   0.359   0.584  0.00  0.00     0.047 A 
ENDROOT
BRANCH   9  10
ATOM     10  C   UNL d   1       0.280   0.373   0.933  0.00  0.00     0.029 C 
ATOM     11  C   UNL d   1       0.978   1.476   1.175  0.00  0.00     0.007 C 
BRANCH  11  12
ATOM     12  C   UNL d   1       2.425   1.401   1.518  0.00  0.00     0.143 C 
BRANCH  12  13
ATOM     13  C   UNL d   1       3.236   1.012   0.291  0.00  0.00     0.068 C 
BRANCH  13  14
ATOM     14  C   UNL d   1       4.667   0.663   0.675  0.00  0.00     0.130 C 
BRANCH  14  15
ATOM     15  C   UNL d   1       5.530   0.543  -0.570  0.00  0.00     0.144 C 
BRANCH  15  16
ATOM     16  C   UNL d   1       5.863   1.891  -1.113  0.00  0.00     0.175 C 
ATOM     17  O   UNL d   1       5.209   2.359  -2.081  0.00  0.00    -0.648 OA
ATOM     18  O   UNL d   1       6.876   2.644  -0.533  0.00  0.00    -0.648 OA
ENDBRANCH  15  16
ENDBRANCH  14  15
BRANCH  14  19
ATOM     19  O   UNL d   1       4.683  -0.552   1.362  0.00  0.00    -0.395 OA
ATOM     20  HO  UNL d   1       5.576  -0.770   1.602  1.00  0.00     0.210 HD
ENDBRANCH  14  19
ENDBRANCH  13  14
ENDBRANCH  12  13
BRANCH  12  21
ATOM     21  O   UNL d   1       2.850   2.645   1.987  0.00  0.00    -0.392 OA
ATOM     22  HO  UNL d   1       3.773   2.597   2.206  1.00  0.00     0.210 HD
ENDBRANCH  12  21
ENDBRANCH  11  12
ENDBRANCH   9  10
BRANCH   1  23
ATOM     23  C   UNL d   1      -1.559   2.857   0.679  0.00  0.00     0.082 C 
ATOM     24  C   UNL d   1      -1.745   3.665  -0.593  0.00  0.00     0.032 C 
ATOM     25  C   UNL d   1      -2.331   3.483   1.827  0.00  0.00     0.032 C 
ENDBRANCH   1  23
BRANCH   8  26
ATOM     26  C   UNL d   1      -1.415  -2.219   0.316  0.00  0.00    -0.023 A 
ATOM     27  C   UNL d   1      -0.067  -2.526   0.563  0.00  0.00     0.015 A 
ATOM     28  C   UNL d   1       0.378  -3.851   0.559  0.00  0.00     0.043 A 
ATOM     29  C   UNL d   1      -0.522  -4.888   0.307  0.00  0.00     0.116 A 
ATOM     30  C   UNL d   1      -1.866  -4.599   0.059  0.00  0.00     0.043 A 
ATOM     31  F   UNL d   1      -0.093  -6.172   0.304  0.00  0.00    -0.206 F 
ATOM     32  C   UNL d   1      -2.307  -3.273   0.064  0.00  0.00     0.015 A 
ENDBRANCH   8  26
TORSDOF 10
