REMARK  15 active torsions:
REMARK  status: ('A' for Active; 'I' for Inactive)
REMARK    1  A    between atoms: N_2  and  C_3 
REMARK       I    between atoms: N_2  and  C_10 
REMARK    2  A    between atoms: C_3  and  C_4 
REMARK    3  A    between atoms: C_4  and  C_5 
REMARK    4  A    between atoms: C_4  and  O_8 
REMARK    5  A    between atoms: C_5  and  O_6 
REMARK    6  A    between atoms: C_10  and  C_12 
REMARK    7  A    between atoms: C_14  and  C_27 
REMARK    8  A    between atoms: C_16  and  N_19 
REMARK       I    between atoms: N_19  and  C_21 
REMARK    9  A    between atoms: C_21  and  C_23 
REMARK   10  A    between atoms: C_23  and  O_24 
REMARK       I    between atoms: C_27  and  N_29 
REMARK   11  A    between atoms: N_29  and  C_31 
REMARK   12  A    between atoms: C_31  and  C_32 
REMARK   13  A    between atoms: C_32  and  C_33 
REMARK   14  A    between atoms: C_32  and  O_36 
REMARK   15  A    between atoms: C_33  and  O_34 
ROOT
ATOM      1  C   UNL d   1       1.790  -0.845   0.990  0.00  0.00     0.068 A 
ATOM      2  C   UNL d   1       0.675  -1.665   0.721  0.00  0.00     0.040 A 
ATOM      3  C   UNL d   1      -0.628  -1.130   0.807  0.00  0.00     0.068 A 
ATOM      4  C   UNL d   1      -0.811   0.225   1.156  0.00  0.00     0.051 A 
ATOM      5  C   UNL d   1       0.308   1.042   1.403  0.00  0.00     0.070 A 
ATOM      6  C   UNL d   1       1.602   0.504   1.345  0.00  0.00     0.051 A 
ATOM      7  I   UNL d   1       3.265   1.760   1.807  0.00  0.00    -0.041 I 
ATOM      8  I   UNL d   1      -2.775   1.014   1.463  0.00  0.00    -0.041 I 
ATOM      9  I   UNL d   1       0.976  -3.692   0.095  0.00  0.00    -0.042 I 
ENDROOT
BRANCH   1  10
ATOM     10  C   UNL d   1       3.156  -1.388   0.862  0.00  0.00     0.256 C 
ATOM     11  N   UNL d   1       3.983  -1.060  -0.270  0.00  0.00    -0.350 N 
ATOM     12  C   UNL d   1       5.369  -1.495  -0.313  0.00  0.00     0.153 C 
ATOM     13  O   UNL d   1       3.592  -2.160   1.759  0.00  0.00    -0.267 OA
BRANCH  11  14
ATOM     14  C   UNL d   1       3.496  -0.220  -1.358  0.00  0.00     0.159 C 
BRANCH  14  15
ATOM     15  C   UNL d   1       2.479  -0.974  -2.202  0.00  0.00     0.159 C 
BRANCH  15  16
ATOM     16  C   UNL d   1       1.686  -0.003  -3.054  0.00  0.00     0.197 C 
BRANCH  16  17
ATOM     17  O   UNL d   1       0.819   0.737  -2.248  0.00  0.00    -0.398 OA
ATOM     18  HO  UNL d   1       0.322   1.345  -2.781  1.00  0.00     0.209 HD
ENDBRANCH  16  17
ENDBRANCH  15  16
BRANCH  15  19
ATOM     19  O   UNL d   1       3.139  -1.885  -3.027  0.00  0.00    -0.392 OA
ATOM     20  HO  UNL d   1       2.504  -2.356  -3.554  1.00  0.00     0.210 HD
ENDBRANCH  15  19
ENDBRANCH  14  15
ENDBRANCH  11  14
ENDBRANCH   1  10
BRANCH   5  21
ATOM     21  N   UNL d   1       0.144   2.421   1.750  0.00  0.00    -0.323 N 
ATOM     22  C   UNL d   1      -0.341   3.406   0.832  0.00  0.00     0.245 C 
ATOM     23  O   UNL d   1      -0.570   3.107  -0.370  0.00  0.00    -0.271 OA
ATOM     24  HN  UNL d   1       0.383   2.716   2.696  1.00  0.00     0.169 HD
BRANCH  22  25
ATOM     25  C   UNL d   1      -0.519   4.809   1.289  0.00  0.00     0.270 C 
BRANCH  25  26
ATOM     26  O   UNL d   1       0.698   5.485   1.212  0.00  0.00    -0.387 OA
ATOM     27  C   UNL d   1       0.430   6.750   1.733  0.00  0.00     0.202 C 
ENDBRANCH  25  26
ENDBRANCH  22  25
ENDBRANCH   5  21
BRANCH   3  28
ATOM     28  C   UNL d   1      -1.797  -1.982   0.523  0.00  0.00     0.254 C 
ATOM     29  O   UNL d   1      -2.018  -3.002   1.230  0.00  0.00    -0.268 OA
ATOM     30  N   UNL d   1      -2.672  -1.648  -0.555  0.00  0.00    -0.354 N 
ATOM     31  HN  UNL d   1      -2.463  -0.830  -1.126  1.00  0.00     0.162 HD
BRANCH  30  32
ATOM     32  C   UNL d   1      -3.853  -2.439  -0.863  0.00  0.00     0.156 C 
BRANCH  32  33
ATOM     33  C   UNL d   1      -4.606  -1.815  -2.026  0.00  0.00     0.159 C 
BRANCH  33  34
ATOM     34  C   UNL d   1      -5.240  -0.486  -1.631  0.00  0.00     0.197 C 
BRANCH  34  35
ATOM     35  O   UNL d   1      -6.190  -0.672  -0.625  0.00  0.00    -0.398 OA
ATOM     36  HO  UNL d   1      -6.585   0.156  -0.378  1.00  0.00     0.209 HD
ENDBRANCH  34  35
ENDBRANCH  33  34
BRANCH  33  37
ATOM     37  O   UNL d   1      -5.589  -2.697  -2.477  0.00  0.00    -0.392 OA
ATOM     38  HO  UNL d   1      -6.060  -2.307  -3.204  1.00  0.00     0.210 HD
ENDBRANCH  33  37
ENDBRANCH  32  33
ENDBRANCH  30  32
ENDBRANCH   3  28
TORSDOF 15
