REMARK  1 active torsions:
REMARK  status: ('A' for Active; 'I' for Inactive)
REMARK    1  A    between atoms: C_4  and  C_7 
ROOT
ATOM      1  C   UNL d   1       1.514   0.483   0.041  0.00  0.00     0.006 C 
ATOM      2  C   UNL d   1       0.262   1.334  -0.153  0.00  0.00     0.183 C 
ATOM      3  O   UNL d   1      -0.734   0.964   0.774  0.00  0.00    -0.354 OA
ATOM      4  C   UNL d   1      -1.149  -0.381   0.540  0.00  0.00     0.317 C 
ATOM      5  O   UNL d   1      -0.194  -1.196  -0.122  0.00  0.00    -0.354 OA
ATOM      6  C   UNL d   1       1.062  -0.925   0.444  0.00  0.00     0.183 C 
ATOM      7  C   UNL d   1       2.294   0.458  -1.276  0.00  0.00     0.018 C 
ATOM      8  C   UNL d   1       3.581  -0.358  -1.142  0.00  0.00     0.028 C 
ATOM      9  C   UNL d   1       4.365   0.017   0.087  0.00  0.00    -0.031 C 
ATOM     10  C   UNL d   1       3.808   0.632   1.140  0.00  0.00    -0.030 C 
ATOM     11  C   UNL d   1       2.373   1.101   1.150  0.00  0.00     0.040 C 
ENDROOT
BRANCH   4  12
ATOM     12  C   UNL d   1      -2.449  -0.406  -0.193  0.00  0.00     0.107 A 
ATOM     13  C   UNL d   1      -2.640  -0.015  -1.501  0.00  0.00     0.040 A 
ATOM     14  C   UNL d   1      -3.991  -0.208  -1.731  0.00  0.00     0.027 A 
ATOM     15  C   UNL d   1      -4.528  -0.699  -0.552  0.00  0.00     0.142 A 
ATOM     16  O   UNL d   1      -3.574  -0.802   0.342  0.00  0.00    -0.322 OA
ENDBRANCH   4  12
TORSDOF 1
