REMARK  7 active torsions:
REMARK  status: ('A' for Active; 'I' for Inactive)
REMARK       I    between atoms: C_2  and  N_3 
REMARK    1  A    between atoms: C_2  and  C_10 
REMARK    2  A    between atoms: N_3  and  O_5 
REMARK    3  A    between atoms: O_5  and  C_6 
REMARK    4  A    between atoms: C_6  and  C_7 
REMARK    5  A    between atoms: C_7  and  O_8 
REMARK    6  A    between atoms: C_21  and  N_22 
REMARK    7  A    between atoms: N_22  and  C_24 
ROOT
ATOM      1  C   UNL d   1      -0.680  -0.781   0.300  0.00  0.00     0.066 A 
ATOM      2  C   UNL d   1      -1.266  -1.938  -0.258  0.00  0.00     0.051 A 
ATOM      3  C   UNL d   1      -0.739  -3.176   0.094  0.00  0.00     0.066 A 
ATOM      4  C   UNL d   1       0.300  -3.305   0.958  0.00  0.00     0.101 A 
ATOM      5  N   UNL d   1       0.603  -4.605   1.136  0.00  0.00    -0.348 N 
ATOM      6  HN  UNL d   1       1.334  -5.008   1.723  1.00  0.00     0.167 HD
ATOM      7  C   UNL d   1      -0.296  -5.253   0.347  0.00  0.00     0.183 A 
ATOM      8  N   UNL d   1      -1.123  -4.396  -0.295  0.00  0.00    -0.345 N 
ATOM      9  C   UNL d   1      -2.198  -4.745  -1.208  0.00  0.00     0.157 C 
ATOM     10  C   UNL d   1       0.918  -2.199   1.530  0.00  0.00     0.172 A 
ATOM     11  F   UNL d   1       1.971  -2.352   2.372  0.00  0.00    -0.201 F 
ATOM     12  C   UNL d   1       0.446  -0.915   1.180  0.00  0.00     0.090 A 
ENDROOT
BRANCH  12  13
ATOM     13  N   UNL d   1       1.133   0.225   1.712  0.00  0.00    -0.351 N 
ATOM     14  HN  UNL d   1       1.162   0.333   2.726  1.00  0.00     0.166 HD
BRANCH  13  15
ATOM     15  C   UNL d   1       1.783   1.226   0.915  0.00  0.00     0.054 A 
ATOM     16  C   UNL d   1       1.952   1.046  -0.468  0.00  0.00     0.032 A 
ATOM     17  C   UNL d   1       2.594   2.020  -1.235  0.00  0.00     0.021 A 
ATOM     18  C   UNL d   1       3.076   3.181  -0.626  0.00  0.00     0.012 A 
ATOM     19 BR   UNL d   1       3.950   4.512  -1.672  0.00  0.00    -0.051 Br
ATOM     20  C   UNL d   1       2.920   3.365   0.750  0.00  0.00     0.045 A 
ATOM     21  C   UNL d   1       2.278   2.392   1.522  0.00  0.00     0.062 A 
ATOM     22 CL   UNL d   1       2.100   2.661   3.248  0.00  0.00    -0.082 Cl
ENDBRANCH  13  15
ENDBRANCH  12  13
BRANCH   1  23
ATOM     23  C   UNL d   1      -1.302   0.525  -0.012  0.00  0.00     0.277 C 
ATOM     24  O   UNL d   1      -1.142   1.513   0.754  0.00  0.00    -0.265 OA
ATOM     25  N   UNL d   1      -2.129   0.661  -1.171  0.00  0.00    -0.231 N 
ATOM     26  HN  UNL d   1      -2.267  -0.143  -1.783  1.00  0.00     0.197 HD
BRANCH  25  27
ATOM     27  O   UNL d   1      -2.733   1.836  -1.472  0.00  0.00    -0.275 OA
BRANCH  27  28
ATOM     28  C   UNL d   1      -4.021   1.726  -0.942  0.00  0.00     0.227 C 
BRANCH  28  29
ATOM     29  C   UNL d   1      -4.564   3.105  -0.619  0.00  0.00     0.192 C 
BRANCH  29  30
ATOM     30  O   UNL d   1      -3.828   3.672   0.421  0.00  0.00    -0.399 OA
ATOM     31  HO  UNL d   1      -4.169   4.535   0.624  1.00  0.00     0.209 HD
ENDBRANCH  29  30
ENDBRANCH  28  29
ENDBRANCH  27  28
ENDBRANCH  25  27
ENDBRANCH   1  23
TORSDOF 7
