REMARK  8 active torsions:
REMARK  status: ('A' for Active; 'I' for Inactive)
REMARK    1  A    between atoms: C_8  and  O_44 
REMARK    2  A    between atoms: C_9  and  O_42 
REMARK    3  A    between atoms: C_10  and  O_12 
REMARK    4  A    between atoms: C_13  and  O_12 
REMARK    5  A    between atoms: C_20  and  C_27 
REMARK    6  A    between atoms: C_29  and  O_37 
REMARK    7  A    between atoms: C_30  and  O_35 
REMARK    8  A    between atoms: C_31  and  O_33 
ROOT
ATOM      1  C   UNL d   1       0.565  -0.911  -1.643  0.00  0.00     0.165 C 
ATOM      2  C   UNL d   1      -0.442   0.163  -1.999  0.00  0.00    -0.019 A 
ATOM      3  C   UNL d   1      -0.067   1.133  -2.947  0.00  0.00     0.050 A 
ATOM      4  C   UNL d   1      -0.994   2.113  -3.280  0.00  0.00     0.105 A 
ATOM      5  C   UNL d   1      -2.231   2.155  -2.727  0.00  0.00     0.105 A 
ATOM      6  C   UNL d   1      -2.653   1.226  -1.784  0.00  0.00     0.048 A 
ATOM      7  C   UNL d   1      -1.746   0.221  -1.384  0.00  0.00    -0.037 A 
ATOM      8  C   UNL d   1      -2.205  -0.845  -0.387  0.00  0.00     0.066 C 
ATOM      9  C   UNL d   1      -1.002  -1.632   0.136  0.00  0.00     0.107 C 
ATOM     10  C   UNL d   1      -0.190  -2.091  -1.051  0.00  0.00     0.058 C 
ATOM     11  C   UNL d   1       0.579  -3.315  -0.567  0.00  0.00     0.187 C 
ATOM     12  O   UNL d   1      -0.295  -3.869   0.410  0.00  0.00    -0.321 OA
ATOM     13  C   UNL d   1      -1.233  -2.930   0.803  0.00  0.00     0.264 C 
ATOM     14  O   UNL d   1      -2.108  -3.149   1.681  0.00  0.00    -0.265 OA
ATOM     15  O   UNL d   1      -2.933   3.222  -3.252  0.00  0.00    -0.323 OA
ATOM     16  C   UNL d   1      -2.083   3.895  -4.191  0.00  0.00     0.352 A 
ATOM     17  O   UNL d   1      -0.856   3.154  -4.177  0.00  0.00    -0.323 OA
ENDROOT
BRANCH   1  18
ATOM     18  O   UNL d   1       1.487  -0.407  -0.720  0.00  0.00    -0.348 OA
BRANCH  18  19
ATOM     19  C   UNL d   1       2.734  -0.517  -1.350  0.00  0.00     0.292 C 
ATOM     20  C   UNL d   1       3.464   0.848  -1.456  0.00  0.00     0.204 C 
ATOM     21  C   UNL d   1       4.944   0.688  -1.095  0.00  0.00     0.183 C 
ATOM     22  C   UNL d   1       5.113  -0.009   0.257  0.00  0.00     0.187 C 
ATOM     23  C   UNL d   1       4.010  -1.064   0.478  0.00  0.00     0.180 C 
ATOM     24  O   UNL d   1       6.376  -0.623   0.319  0.00  0.00    -0.351 OA
ATOM     25  C   UNL d   1       4.610  -2.218   1.269  0.00  0.00     0.205 C 
ATOM     26  O   UNL d   1       3.511  -1.539  -0.751  0.00  0.00    -0.348 OA
ATOM     27  O   UNL d   1       5.478  -1.715   2.258  0.00  0.00    -0.359 OA
ATOM     28  C   UNL d   1       6.587  -1.050   1.655  0.00  0.00     0.256 C 
ATOM     29  C   UNL d   1       7.818  -1.934   1.722  0.00  0.00     0.070 C 
BRANCH  20  30
ATOM     30  O   UNL d   1       2.866   1.804  -0.628  0.00  0.00    -0.388 OA
ATOM     31  HO  UNL d   1       1.948   1.903  -0.852  1.00  0.00     0.210 HD
ENDBRANCH  20  30
BRANCH  21  32
ATOM     32  O   UNL d   1       5.587   1.927  -1.084  0.00  0.00    -0.390 OA
ATOM     33  HO  UNL d   1       5.482   2.360  -1.923  1.00  0.00     0.210 HD
ENDBRANCH  21  32
ENDBRANCH  18  19
ENDBRANCH   1  18
BRANCH   8  34
ATOM     34  C   UNL d   1      -2.978  -0.252   0.758  0.00  0.00    -0.043 A 
ATOM     35  C   UNL d   1      -2.385   0.668   1.632  0.00  0.00     0.047 A 
ATOM     36  C   UNL d   1      -3.119   1.214   2.696  0.00  0.00     0.104 A 
ATOM     37  C   UNL d   1      -4.455   0.832   2.880  0.00  0.00     0.132 A 
ATOM     38  C   UNL d   1      -5.056  -0.089   2.008  0.00  0.00     0.104 A 
ATOM     39  C   UNL d   1      -4.309  -0.626   0.948  0.00  0.00     0.047 A 
BRANCH  36  40
ATOM     40  O   UNL d   1      -2.541   2.134   3.578  0.00  0.00    -0.353 OA
ATOM     41  C   UNL d   1      -1.194   2.571   3.459  0.00  0.00     0.210 C 
ENDBRANCH  36  40
BRANCH  37  42
ATOM     42  O   UNL d   1      -5.190   1.368   3.932  0.00  0.00    -0.356 OA
ATOM     43  HO  UNL d   1      -4.783   1.992   4.522  1.00  0.00     0.218 HD
ENDBRANCH  37  42
BRANCH  38  44
ATOM     44  O   UNL d   1      -6.391  -0.455   2.213  0.00  0.00    -0.353 OA
ATOM     45  C   UNL d   1      -7.071  -1.382   1.378  0.00  0.00     0.210 C 
ENDBRANCH  38  44
ENDBRANCH   8  34
TORSDOF 8
