REMARK  5 active torsions:
REMARK  status: ('A' for Active; 'I' for Inactive)
REMARK    1  A    between atoms: C_4  and  C_7 
REMARK    2  A    between atoms: C_8  and  C_7 
REMARK    3  A    between atoms: C_13  and  C_28 
REMARK    4  A    between atoms: C_14  and  S_22 
REMARK    5  A    between atoms: S_22  and  N_25 
ROOT
ATOM      1  C   UNL d   1       2.236  -0.998   0.792  0.00  0.00     0.196 C 
ATOM      2  N   UNL d   1       0.947  -1.665   0.607  0.00  0.00    -0.367 N 
ATOM      3  HN  UNL d   1       0.942  -2.682   0.527  1.00  0.00     0.161 HD
ATOM      4  C   UNL d   1      -0.307  -0.979   0.531  0.00  0.00     0.054 A 
ATOM      5  C   UNL d   1      -1.429  -1.649   0.042  0.00  0.00     0.048 A 
ATOM      6  C   UNL d   1      -2.676  -1.010  -0.058  0.00  0.00     0.073 A 
ATOM      7  C   UNL d   1      -2.788   0.340   0.375  0.00  0.00     0.096 A 
ATOM      8  C   UNL d   1      -1.658   0.996   0.878  0.00  0.00     0.053 A 
ATOM      9  C   UNL d   1      -0.428   0.344   0.957  0.00  0.00     0.107 A 
ATOM     10  S   UNL d   1       0.960   1.149   1.650  0.00  0.00     0.262 S 
ATOM     11  O   UNL d   1       1.454   2.219   0.718  0.00  0.00    -0.200 OA
ATOM     12  O   UNL d   1       0.587   1.759   2.971  0.00  0.00    -0.200 OA
ATOM     13  N   UNL d   1       2.203  -0.039   1.903  0.00  0.00    -0.293 N 
ATOM     14  HN  UNL d   1       2.823  -0.066   2.712  1.00  0.00     0.174 HD
ENDROOT
BRANCH   1  15
ATOM     15  C   UNL d   1       2.713  -0.361  -0.512  0.00  0.00     0.086 C 
BRANCH  15  16
ATOM     16  C   UNL d   1       4.162  -0.016  -0.438  0.00  0.00    -0.054 A 
ATOM     17  C   UNL d   1       5.131  -0.995  -0.686  0.00  0.00     0.007 A 
ATOM     18  C   UNL d   1       6.489  -0.673  -0.602  0.00  0.00     0.001 A 
ATOM     19  C   UNL d   1       6.880   0.626  -0.266  0.00  0.00     0.000 A 
ATOM     20  C   UNL d   1       5.914   1.605  -0.014  0.00  0.00     0.001 A 
ATOM     21  C   UNL d   1       4.556   1.284  -0.098  0.00  0.00     0.007 A 
ENDBRANCH  15  16
ENDBRANCH   1  15
BRANCH   6  22
ATOM     22  C   UNL d   1      -3.848  -1.811  -0.579  0.00  0.00     0.419 C 
ATOM     23  F   UNL d   1      -4.500  -1.121  -1.582  0.00  0.00    -0.166 F 
ATOM     24  F   UNL d   1      -3.425  -3.022  -1.102  0.00  0.00    -0.166 F 
ATOM     25  F   UNL d   1      -4.729  -2.071   0.453  0.00  0.00    -0.166 F 
ENDBRANCH   6  22
BRANCH   7  26
ATOM     26  S   UNL d   1      -4.294   1.264   0.312  0.00  0.00     0.257 S 
ATOM     27  O   UNL d   1      -5.412   0.497   0.958  0.00  0.00    -0.201 OA
ATOM     28  O   UNL d   1      -4.645   1.573  -1.116  0.00  0.00    -0.201 OA
BRANCH  26  29
ATOM     29  N   UNL d   1      -4.092   2.754   1.166  0.00  0.00    -0.324 N 
ATOM     30  HN2 UNL d   1      -3.230   3.041   1.630  1.00  0.00     0.169 HD
ATOM     31  HN1 UNL d   1      -4.961   3.287   1.129  1.00  0.00     0.169 HD
ENDBRANCH  26  29
ENDBRANCH   7  26
TORSDOF 5
