REMARK  6 active torsions:
REMARK  status: ('A' for Active; 'I' for Inactive)
REMARK    1  A    between atoms: C_13  and  N_9 
REMARK    2  A    between atoms: C_14  and  O_24 
REMARK    3  A    between atoms: C_15  and  O_22 
REMARK    4  A    between atoms: C_16  and  C_18 
REMARK    5  A    between atoms: C_18  and  O_19 
REMARK    6  A    between atoms: O_19  and  P_20 
ROOT
ATOM      1  C   UNL d   1       0.033   0.127  -1.427  0.00  0.00     0.262 C 
ATOM      2  C   UNL d   1       0.551   1.520  -1.077  0.00  0.00     0.198 C 
ATOM      3  C   UNL d   1       1.734   1.220  -0.215  0.00  0.00     0.182 C 
ATOM      4  C   UNL d   1       1.355  -0.127   0.385  0.00  0.00     0.180 C 
ATOM      5  O   UNL d   1       0.538  -0.827  -0.520  0.00  0.00    -0.353 OA
ENDROOT
BRANCH   1   6
ATOM      6  N   UNL d   1      -1.425   0.059  -1.508  0.00  0.00    -0.297 N 
ATOM      7  C   UNL d   1      -2.319  -0.107  -0.526  0.00  0.00     0.142 A 
ATOM      8  C   UNL d   1      -3.565  -0.055  -1.043  0.00  0.00     0.119 A 
ATOM      9  N   UNL d   1      -2.082  -0.285   0.797  0.00  0.00    -0.336 N 
ATOM     10  C   UNL d   1      -4.666  -0.193  -0.210  0.00  0.00     0.148 A 
ATOM     11  N   UNL d   1      -3.515   0.151  -2.372  0.00  0.00    -0.346 N 
ATOM     12  N   UNL d   1      -4.437  -0.378   1.124  0.00  0.00    -0.339 N 
ATOM     13  N   UNL d   1      -5.994  -0.142  -0.720  0.00  0.00    -0.080 NA
ATOM     14  C   UNL d   1      -3.161  -0.423   1.627  0.00  0.00     0.183 A 
ATOM     15  HN  UNL d   1      -5.229  -0.483   1.758  1.00  0.00     0.167 HD
ATOM     16  C   UNL d   1      -2.177   0.221  -2.626  0.00  0.00     0.188 A 
ATOM     17  HN  UNL d   1      -4.290   0.234  -3.030  1.00  0.00     0.167 HD
ATOM     18  HN  UNL d   1      -1.130  -0.315   1.162  1.00  0.00     0.168 HD
ENDBRANCH   1   6
BRANCH   2  19
ATOM     19  O   UNL d   1      -0.384   2.243  -0.331  0.00  0.00    -0.388 OA
ATOM     20  HO  UNL d   1      -0.062   3.110  -0.113  1.00  0.00     0.210 HD
ENDBRANCH   2  19
BRANCH   4  21
ATOM     21  C   UNL d   1       2.553  -0.974   0.792  0.00  0.00     0.217 C 
BRANCH  21  22
ATOM     22  O   UNL d   1       3.222  -0.369   1.859  0.00  0.00    -0.280 OA
BRANCH  22  23
ATOM     23  P   UNL d   1       4.815  -0.944   1.777  0.00  0.00     0.422 P 
ATOM     24  O   UNL d   1       4.840  -2.435   2.028  0.00  0.00    -0.617 OA
ATOM     25  O   UNL d   1       5.742  -0.168   2.959  0.00  0.00    -0.617 OA
ATOM     26  O   UNL d   1       5.474  -0.614   0.254  0.00  0.00    -0.617 OA
ENDBRANCH  22  23
ENDBRANCH  21  22
ENDBRANCH   4  21
BRANCH   3  27
ATOM     27  O   UNL d   1       2.866   1.107  -1.027  0.00  0.00    -0.390 OA
ATOM     28  HO  UNL d   1       3.618   0.917  -0.479  1.00  0.00     0.210 HD
ENDBRANCH   3  27
TORSDOF 6
