REMARK  1 active torsions:
REMARK  status: ('A' for Active; 'I' for Inactive)
REMARK    1  A    between atoms: C_16  and  O_22 
ROOT
ATOM      1  C   UNL d   1       0.473   2.311  -1.993  0.00  0.00     0.010 C 
ATOM      2  C   UNL d   1       0.282   1.830  -0.567  0.00  0.00    -0.010 C 
ATOM      3  C   UNL d   1       1.593   2.047   0.215  0.00  0.00     0.039 C 
ATOM      4  C   UNL d   1       2.429   0.799   0.247  0.00  0.00    -0.067 C 
ATOM      5  C   UNL d   1       3.648   0.822  -0.299  0.00  0.00     0.053 C 
ATOM      6  C   UNL d   1       4.432  -0.413  -0.458  0.00  0.00     0.149 C 
ATOM      7  O   UNL d   1       5.609  -0.351  -0.899  0.00  0.00    -0.293 OA
ATOM      8  C   UNL d   1       3.849  -1.743  -0.082  0.00  0.00     0.084 C 
ATOM      9  C   UNL d   1       2.317  -1.686  -0.061  0.00  0.00     0.022 C 
ATOM     10  C   UNL d   1       1.811  -0.491   0.769  0.00  0.00    -0.016 C 
ATOM     11  C   UNL d   1       0.277  -0.377   0.699  0.00  0.00     0.003 C 
ATOM     12  C   UNL d   1      -0.194   0.361  -0.574  0.00  0.00    -0.001 C 
ATOM     13  C   UNL d   1      -1.710   0.173  -0.770  0.00  0.00     0.001 C 
ATOM     14  C   UNL d   1      -2.512   1.144  -1.611  0.00  0.00     0.009 C 
ATOM     15  C   UNL d   1      -3.963   0.893  -1.195  0.00  0.00     0.038 C 
ATOM     16  C   UNL d   1      -3.942  -0.151  -0.072  0.00  0.00     0.062 C 
ATOM     17  C   UNL d   1      -2.510  -0.097   0.490  0.00  0.00    -0.009 C 
ATOM     18  C   UNL d   1      -2.024  -1.405   1.147  0.00  0.00     0.013 C 
ATOM     19  C   UNL d   1      -0.510  -1.673   0.969  0.00  0.00     0.007 C 
ATOM     20  C   UNL d   1      -2.340   1.057   1.490  0.00  0.00     0.018 C 
ATOM     21  C   UNL d   1      -5.021   0.155   0.958  0.00  0.00     0.046 C 
ATOM     22  C   UNL d   1       2.208  -0.675   2.228  0.00  0.00     0.020 C 
ENDROOT
BRANCH  16  23
ATOM     23  O   UNL d   1      -4.201  -1.407  -0.631  0.00  0.00    -0.389 OA
ATOM     24  HO  UNL d   1      -4.188  -2.054   0.064  1.00  0.00     0.210 HD
ENDBRANCH  16  23
TORSDOF 1
