REMARK  Name = fda_5716
REMARK  2 active torsions:
REMARK  status: ('A' for Active; 'I' for Inactive)
REMARK    1  A    between atoms: C_5  and  C_11
REMARK    2  A    between atoms: C_6  and  C_9
REMARK                            x       y       z     vdW  Elec       q    Type
REMARK                         _______ _______ _______ _____ _____    ______ ____
ROOT
ATOM      1  C   UNL A   1       3.356   0.041   0.263  0.00  0.00    +0.056 C 
ATOM      2  C   UNL A   1       1.905  -0.227   0.059  0.00  0.00    +0.098 A 
ATOM      3  N   UNL A   1       1.513  -1.441  -0.409  0.00  0.00    -0.245 NA
ATOM      4  C   UNL A   1       0.204  -1.740  -0.617  0.00  0.00    +0.097 A 
ATOM      5  C   UNL A   1      -0.786  -0.791  -0.354  0.00  0.00    +0.031 A 
ATOM      6  C   UNL A   1      -0.413   0.469   0.147  0.00  0.00    +0.051 A 
ATOM      7  C   UNL A   1       0.947   0.756   0.346  0.00  0.00    +0.207 A 
ATOM      8  O   UNL A   1       1.341   2.002   0.825  0.00  0.00    -0.286 OA
ENDROOT
BRANCH   6   9
ATOM      9  C   UNL A   1      -1.444   1.517   0.431  0.00  0.00    +0.212 C 
ATOM     10  O   UNL A   1      -1.661   2.287  -0.711  0.00  0.00    -0.215 OA
ENDBRANCH   6   9
BRANCH   5  11
ATOM     11  C   UNL A   1      -2.216  -1.160  -0.574  0.00  0.00    +0.210 C 
ATOM     12  O   UNL A   1      -2.746  -1.713   0.592  0.00  0.00    -0.215 OA
ENDBRANCH   5  11
TORSDOF 2
