REMARK  2 active torsions:
REMARK  status: ('A' for Active; 'I' for Inactive)
REMARK    1  A    between atoms: C_4  and  C_2 
REMARK    2  A    between atoms: C_25  and  C_28 
ROOT
ATOM      1  C   UNL d   1      -1.627   0.969   2.115  0.00  0.00     0.158 C 
ATOM      2  C   UNL d   1      -1.339   2.275   1.422  0.00  0.00     0.169 C 
ATOM      3  C   UNL d   1       0.164   2.449   1.328  0.00  0.00     0.041 C 
ATOM      4  C   UNL d   1       0.788   1.087   1.563  0.00  0.00     0.004 C 
ATOM      5  C   UNL d   1      -0.281   0.156   2.160  0.00  0.00     0.001 C 
ATOM      6  C   UNL d   1      -0.387  -1.169   1.374  0.00  0.00     0.013 C 
ATOM      7  C   UNL d   1       0.970  -1.840   1.124  0.00  0.00     0.007 C 
ATOM      8  C   UNL d   1       2.068  -0.873   0.624  0.00  0.00     0.002 C 
ATOM      9  C   UNL d   1       1.530   0.543   0.329  0.00  0.00    -0.004 C 
ATOM     10  C   UNL d   1       0.688   0.615  -0.969  0.00  0.00     0.010 C 
ATOM     11  C   UNL d   1       0.938  -0.539  -1.948  0.00  0.00     0.035 C 
ATOM     12  C   UNL d   1       2.366  -0.967  -1.883  0.00  0.00    -0.068 C 
ATOM     13  C   UNL d   1       3.145  -0.784  -2.954  0.00  0.00     0.053 C 
ATOM     14  C   UNL d   1       4.601  -0.975  -2.873  0.00  0.00     0.149 C 
ATOM     15  O   UNL d   1       5.298  -0.897  -3.917  0.00  0.00    -0.293 OA
ATOM     16  C   UNL d   1       5.262  -1.271  -1.559  0.00  0.00     0.084 C 
ATOM     17  C   UNL d   1       4.361  -0.866  -0.385  0.00  0.00     0.022 C 
ATOM     18  C   UNL d   1       2.935  -1.418  -0.546  0.00  0.00    -0.016 C 
ATOM     19  C   UNL d   1       3.009  -2.946  -0.520  0.00  0.00     0.020 C 
ATOM     20  C   UNL d   1       0.166  -0.195   3.579  0.00  0.00     0.019 C 
ATOM     21  O   UNL d   1      -1.888   2.195   0.146  0.00  0.00    -0.342 OA
ATOM     22  C   UNL d   1      -2.812   1.134   0.193  0.00  0.00     0.191 C 
ATOM     23  O   UNL d   1      -2.586   0.319   1.323  0.00  0.00    -0.329 OA
ATOM     24  C   UNL d   1      -4.221   1.704   0.275  0.00  0.00     0.085 C 
ENDROOT
BRANCH  22  25
ATOM     25  C   UNL d   1      -2.698   0.313  -1.069  0.00  0.00     0.003 A 
ATOM     26  C   UNL d   1      -2.845  -1.083  -1.036  0.00  0.00     0.012 A 
ATOM     27  C   UNL d   1      -2.760  -1.834  -2.211  0.00  0.00     0.001 A 
ATOM     28  C   UNL d   1      -2.540  -1.195  -3.434  0.00  0.00     0.000 A 
ATOM     29  C   UNL d   1      -2.410   0.195  -3.482  0.00  0.00     0.001 A 
ATOM     30  C   UNL d   1      -2.494   0.946  -2.307  0.00  0.00     0.012 A 
ENDBRANCH  22  25
BRANCH   1  31
ATOM     31  C   UNL d   1      -2.227   1.271   3.481  0.00  0.00     0.161 C 
ATOM     32  C   UNL d   1      -3.510   0.641   3.918  0.00  0.00     0.094 C 
ATOM     33  O   UNL d   1      -1.663   2.042   4.244  0.00  0.00    -0.295 OA
ENDBRANCH   1  31
TORSDOF 2
