REMARK  Name = fda_3581
REMARK  2 active torsions:
REMARK  status: ('A' for Active; 'I' for Inactive)
REMARK    1  A    between atoms: C_2  and  C_3
REMARK    2  A    between atoms: C_13  and  C_14
REMARK                            x       y       z     vdW  Elec       q    Type
REMARK                         _______ _______ _______ _____ _____    ______ ____
ROOT
ATOM      1  C   UNL A   1      -0.841   2.515  -1.241  0.00  0.00    +0.009 A 
ATOM      2  C   UNL A   1       0.048   1.715  -0.537  0.00  0.00    +0.005 A 
ATOM      3  C   UNL A   1      -0.520   0.496  -0.126  0.00  0.00    +0.037 A 
ATOM      4  C   UNL A   1      -1.861   0.363  -0.514  0.00  0.00    +0.085 A 
ATOM      5  S   UNL A   1      -2.325   1.741  -1.366  0.00  0.00    -0.076 S 
ATOM      6  N   UNL A   1      -2.707  -0.780  -0.300  0.00  0.00    -0.250 N 
ATOM      7  C   UNL A   1      -2.546  -1.633   0.842  0.00  0.00    +0.255 C 
ATOM      8  O   UNL A   1      -3.195  -2.709   0.933  0.00  0.00    -0.272 OA
ATOM      9  C   UNL A   1      -1.618  -1.253   1.942  0.00  0.00    +0.210 C 
ATOM     10  N   UNL A   1      -0.240  -1.322   1.478  0.00  0.00    -0.261 NA
ATOM     11  C   UNL A   1       0.284  -0.541   0.578  0.00  0.00    +0.079 C 
ATOM     12  C   UNL A   1      -3.804  -1.034  -1.224  0.00  0.00    +0.121 C 
ENDROOT
BRANCH  11  13
ATOM     13  C   UNL A   1       1.715  -0.715   0.232  0.00  0.00    +0.028 A 
ATOM     14  C   UNL A   1       2.091  -0.660  -1.120  0.00  0.00    +0.002 A 
ATOM     15  C   UNL A   1       3.422  -0.840  -1.501  0.00  0.00    +0.000 A 
ATOM     16  C   UNL A   1       4.398  -1.078  -0.532  0.00  0.00    +0.001 A 
ATOM     17  C   UNL A   1       4.042  -1.131   0.816  0.00  0.00    +0.011 A 
ATOM     18  C   UNL A   1       2.711  -0.954   1.208  0.00  0.00    +0.059 A 
ATOM     19 CL   UNL A   1       2.364  -0.974   2.932  0.00  0.00    -0.082 Cl
ENDBRANCH  11  13
BRANCH   1  21
ATOM     20  C   UNL A   1      -0.881   4.921  -0.730  0.00  0.00    +0.006 C 
ATOM     21  C   UNL A   1      -0.537   3.872  -1.770  0.00  0.00    +0.033 C 
ENDBRANCH   1  21
TORSDOF 2
