REMARK  1 active torsions:
REMARK  status: ('A' for Active; 'I' for Inactive)
REMARK    1  A    between atoms: C_3  and  C_8 
ROOT
ATOM      1  C   UNL d   1       0.567  -0.751  -2.157  0.00  0.00     0.046 C 
ATOM      2  C   UNL d   1       1.398  -0.189  -1.006  0.00  0.00     0.251 C 
ATOM      3  C   UNL d   1       0.625   0.923  -0.256  0.00  0.00     0.187 C 
ATOM      4  O   UNL d   1       1.367   1.450   0.829  0.00  0.00    -0.377 OA
ATOM      5  C   UNL d   1       1.700   0.407   1.718  0.00  0.00     0.199 C 
ATOM      6  C   UNL d   1       2.569  -0.636   1.020  0.00  0.00     0.298 C 
ATOM      7  C   UNL d   1       2.786  -2.095  -0.772  0.00  0.00     0.310 C 
ATOM      8  N   UNL d   1       1.827  -1.248  -0.081  0.00  0.00     0.093 N 
ENDROOT
BRANCH   3   9
ATOM      9  C   UNL d   1      -0.804   0.610   0.116  0.00  0.00    -0.027 A 
ATOM     10  C   UNL d   1      -1.145  -0.563   0.806  0.00  0.00     0.010 A 
ATOM     11  C   UNL d   1      -2.476  -0.816   1.150  0.00  0.00     0.001 A 
ATOM     12  C   UNL d   1      -3.472   0.103   0.809  0.00  0.00     0.000 A 
ATOM     13  C   UNL d   1      -3.137   1.276   0.127  0.00  0.00     0.001 A 
ATOM     14  C   UNL d   1      -1.805   1.529  -0.217  0.00  0.00     0.010 A 
ENDBRANCH   3   9
TORSDOF 1
