REMARK  3 active torsions:
REMARK  status: ('A' for Active; 'I' for Inactive)
REMARK    1  A    between atoms: C_8  and  O_20 
REMARK    2  A    between atoms: C_14  and  C_15 
REMARK    3  A    between atoms: C_14  and  N_22 
ROOT
ATOM      1  C   UNL d   1      -0.361   2.632   1.328  0.00  0.00     0.013 C 
ATOM      2  C   UNL d   1       0.140   1.778   0.164  0.00  0.00     0.028 C 
ATOM      3  C   UNL d   1       0.941   0.568   0.667  0.00  0.00     0.232 C 
ATOM      4  C   UNL d   1       0.072  -0.364   1.531  0.00  0.00     0.075 C 
ATOM      5  C   UNL d   1      -1.331  -0.550   1.007  0.00  0.00    -0.049 A 
ATOM      6  C   UNL d   1      -2.133  -1.523   1.611  0.00  0.00     0.010 A 
ATOM      7  C   UNL d   1      -3.446  -1.725   1.181  0.00  0.00     0.037 A 
ATOM      8  C   UNL d   1      -3.968  -0.953   0.143  0.00  0.00     0.066 A 
ATOM      9  C   UNL d   1      -3.180   0.026  -0.464  0.00  0.00     0.045 A 
ATOM     10  C   UNL d   1      -1.865   0.261  -0.028  0.00  0.00    -0.040 A 
ATOM     11  C   UNL d   1      -0.979   1.267  -0.753  0.00  0.00    -0.009 C 
ATOM     12  C   UNL d   1      -0.300   0.587  -1.944  0.00  0.00     0.044 C 
ATOM     13  C   UNL d   1       0.615  -0.565  -1.495  0.00  0.00     0.274 C 
ATOM     14  C   UNL d   1      -1.784   2.448  -1.287  0.00  0.00     0.021 C 
ATOM     15  N   UNL d   1       1.571  -0.177  -0.442  0.00  0.00     0.097 N 
ENDROOT
BRANCH  15  16
ATOM     16  C   UNL d   1       2.634   0.627  -1.038  0.00  0.00     0.300 C 
BRANCH  16  17
ATOM     17  C   UNL d   1       3.935   0.378  -0.334  0.00  0.00     0.005 C 
ATOM     18  C   UNL d   1       4.630  -0.760  -0.446  0.00  0.00    -0.090 C 
ATOM     19  C   UNL d   1       4.170  -1.891  -1.308  0.00  0.00     0.042 C 
ATOM     20  C   UNL d   1       5.910  -0.902   0.302  0.00  0.00     0.042 C 
ENDBRANCH  16  17
ENDBRANCH  15  16
BRANCH   8  21
ATOM     21  O   UNL d   1      -5.270  -1.162  -0.290  0.00  0.00    -0.361 OA
ATOM     22  HO  UNL d   1      -5.626  -0.636  -0.997  1.00  0.00     0.217 HD
ENDBRANCH   8  21
TORSDOF 3
