REMARK  Name = fda_5076
REMARK  4 active torsions:
REMARK  status: ('A' for Active; 'I' for Inactive)
REMARK    1  A    between atoms: C_2  and  C_3
REMARK    2  A    between atoms: N_5  and  C_12
REMARK    3  A    between atoms: C_12  and  C_14
REMARK    4  A    between atoms: C_14  and  N_20
REMARK                            x       y       z     vdW  Elec       q    Type
REMARK                         _______ _______ _______ _____ _____    ______ ____
ROOT
ATOM      1  C   UNL A   1       0.107   0.377  -1.951  0.00  0.00    +0.230 C 
ATOM      2  O   UNL A   1       1.196   0.842  -2.385  0.00  0.00    -0.275 OA
ATOM      3  N   UNL A   1      -0.384   0.780  -0.654  0.00  0.00    -0.244 N 
ATOM      4  C   UNL A   1      -1.745   0.506  -0.241  0.00  0.00    +0.137 A 
ATOM      5  C   UNL A   1      -2.072   0.383   1.119  0.00  0.00    +0.035 A 
ATOM      6  C   UNL A   1      -3.393   0.137   1.494  0.00  0.00    +0.004 A 
ATOM      7  C   UNL A   1      -4.382   0.020   0.518  0.00  0.00    +0.021 A 
ATOM      8  C   UNL A   1      -4.030   0.155  -0.826  0.00  0.00    +0.100 A 
ATOM      9  N   UNL A   1      -2.737   0.395  -1.171  0.00  0.00    -0.229 NA
ENDROOT
BRANCH   1  11
ATOM     10  C   UNL A   1      -0.191  -2.037  -2.370  0.00  0.00    +0.010 C 
ATOM     11  C   UNL A   1      -0.606  -0.639  -2.783  0.00  0.00    +0.086 C 
ENDBRANCH   1  11
BRANCH   3  12
ATOM     12  C   UNL A   1       0.525   1.570   0.192  0.00  0.00    +0.097 C 
ATOM     13  C   UNL A   1      -0.065   2.936   0.499  0.00  0.00    +0.023 C 
BRANCH  12  14
ATOM     14  C   UNL A   1       0.910   0.846   1.493  0.00  0.00    +0.092 C 
BRANCH  14  20
ATOM     15  C   UNL A   1       3.099   0.345   0.609  0.00  0.00    +0.072 C 
ATOM     16  C   UNL A   1       4.255  -0.661   0.619  0.00  0.00    +0.017 C 
ATOM     17  C   UNL A   1       3.773  -2.104   0.795  0.00  0.00    +0.003 C 
ATOM     18  C   UNL A   1       2.435  -2.316   0.096  0.00  0.00    +0.017 C 
ATOM     19  C   UNL A   1       1.366  -1.347   0.627  0.00  0.00    +0.072 C 
ATOM     20  N   UNL A   1       1.939  -0.189   1.329  0.00  0.00    -0.271 NA
ENDBRANCH  14  20
ENDBRANCH  12  14
ENDBRANCH   3  12
TORSDOF 4
