REMARK  3 active torsions:
REMARK  status: ('A' for Active; 'I' for Inactive)
REMARK    1  A    between atoms: C_4  and  O_5 
REMARK    2  A    between atoms: C_13  and  O_14 
REMARK    3  A    between atoms: C_17  and  O_18 
ROOT
ATOM      1  C   UNL d   1       5.184   0.707  -0.111  0.00  0.00     0.048 C 
ATOM      2  C   UNL d   1       3.794   0.181  -0.088  0.00  0.00    -0.058 A 
ATOM      3  C   UNL d   1       3.568  -1.193  -0.114  0.00  0.00     0.044 A 
ATOM      4  C   UNL d   1       2.265  -1.697  -0.093  0.00  0.00     0.081 A 
ATOM      5  C   UNL d   1       1.160  -0.814  -0.046  0.00  0.00     0.062 A 
ATOM      6  C   UNL d   1      -0.244  -1.311  -0.023  0.00  0.00     0.199 A 
ATOM      7  O   UNL d   1      -0.471  -2.551  -0.045  0.00  0.00    -0.286 OA
ATOM      8  C   UNL d   1      -1.381  -0.350   0.026  0.00  0.00     0.062 A 
ATOM      9  C   UNL d   1      -1.113   1.038   0.050  0.00  0.00     0.035 A 
ATOM     10  C   UNL d   1      -2.173   1.954   0.097  0.00  0.00     0.053 A 
ATOM     11  C   UNL d   1      -3.493   1.511   0.119  0.00  0.00     0.069 A 
ATOM     12  C   UNL d   1      -3.768   0.146   0.095  0.00  0.00     0.074 A 
ATOM     13  C   UNL d   1      -2.728  -0.786   0.049  0.00  0.00     0.083 A 
ATOM     14  C   UNL d   1       0.276   1.533   0.028  0.00  0.00     0.194 A 
ATOM     15  O   UNL d   1       0.503   2.774   0.050  0.00  0.00    -0.287 OA
ATOM     16  C   UNL d   1       1.401   0.579  -0.021  0.00  0.00     0.032 A 
ATOM     17  C   UNL d   1       2.716   1.062  -0.043  0.00  0.00     0.023 A 
ENDROOT
BRANCH   4  18
ATOM     18  O   UNL d   1       2.091  -3.076  -0.120  0.00  0.00    -0.360 OA
ATOM     19  HO  UNL d   1       1.205  -3.419  -0.106  1.00  0.00     0.217 HD
ENDBRANCH   4  18
BRANCH  13  20
ATOM     20  O   UNL d   1      -3.054  -2.137   0.027  0.00  0.00    -0.360 OA
ATOM     21  HO  UNL d   1      -2.347  -2.770  -0.005  1.00  0.00     0.217 HD
ENDBRANCH  13  20
BRANCH  11  22
ATOM     22  O   UNL d   1      -4.533   2.429   0.165  0.00  0.00    -0.361 OA
ATOM     23  HO  UNL d   1      -5.434   2.126   0.180  1.00  0.00     0.217 HD
ENDBRANCH  11  22
TORSDOF 3
