REMARK  4 active torsions:
REMARK  status: ('A' for Active; 'I' for Inactive)
REMARK    1  A    between atoms: C_5  and  O_6 
REMARK    2  A    between atoms: C_5  and  C_8 
REMARK    3  A    between atoms: C_8  and  C_10 
REMARK    4  A    between atoms: C_10  and  O_11 
ROOT
ATOM      1  C   UNL d   1       0.898  -0.498  -0.725  0.00  0.00     0.006 C 
ATOM      2  C   UNL d   1       1.857  -1.227  -1.647  0.00  0.00     0.014 C 
ATOM      3  C   UNL d   1       3.236  -0.698  -1.249  0.00  0.00     0.025 C 
ATOM      4  C   UNL d   1       3.948  -0.076  -2.442  0.00  0.00     0.013 C 
ATOM      5  C   UNL d   1       3.034   0.274  -0.057  0.00  0.00     0.131 C 
ATOM      6  C   UNL d   1       1.690  -0.192   0.536  0.00  0.00     0.002 C 
ATOM      7  C   UNL d   1       1.866  -1.450   1.407  0.00  0.00     0.019 C 
ATOM      8  C   UNL d   1       0.923   0.863   1.342  0.00  0.00     0.040 C 
ATOM      9  C   UNL d   1      -0.567   0.572   1.413  0.00  0.00    -0.021 C 
ATOM     10  C   UNL d   1      -1.206  -0.324   0.617  0.00  0.00    -0.063 C 
ATOM     11  C   UNL d   1      -0.422  -1.177  -0.381  0.00  0.00     0.021 C 
ATOM     12  C   UNL d   1      -1.243  -1.569  -1.621  0.00  0.00     0.014 C 
ATOM     13  C   UNL d   1      -2.288  -0.524  -2.030  0.00  0.00     0.036 C 
ATOM     14  C   UNL d   1      -3.133  -0.067  -0.870  0.00  0.00    -0.060 C 
ATOM     15  C   UNL d   1      -4.227   0.652  -1.139  0.00  0.00     0.059 C 
ATOM     16  C   UNL d   1      -5.016   1.243  -0.054  0.00  0.00     0.172 C 
ATOM     17  O   UNL d   1      -6.107   1.818  -0.301  0.00  0.00    -0.289 OA
ATOM     18  C   UNL d   1      -4.482   1.224   1.311  0.00  0.00     0.052 C 
ATOM     19  C   UNL d   1      -3.394   0.504   1.590  0.00  0.00    -0.004 C 
ATOM     20  C   UNL d   1      -2.723  -0.396   0.564  0.00  0.00     0.021 C 
ATOM     21  C   UNL d   1      -3.163  -1.818   0.882  0.00  0.00     0.029 C 
ENDROOT
BRANCH   5  22
ATOM     22  O   UNL d   1       2.909   1.590  -0.528  0.00  0.00    -0.381 OA
ATOM     23  HO  UNL d   1       2.785   2.185   0.202  1.00  0.00     0.211 HD
ENDBRANCH   5  22
BRANCH   5  24
ATOM     24  C   UNL d   1       4.182   0.218   0.933  0.00  0.00     0.185 C 
ATOM     25  O   UNL d   1       5.070  -0.614   0.817  0.00  0.00    -0.292 OA
BRANCH  24  26
ATOM     26  C   UNL d   1       4.232   1.182   2.077  0.00  0.00     0.245 C 
BRANCH  26  27
ATOM     27  O   UNL d   1       4.127   0.491   3.284  0.00  0.00    -0.393 OA
ATOM     28  HO  UNL d   1       4.158   1.103   4.010  1.00  0.00     0.209 HD
ENDBRANCH  26  27
ENDBRANCH  24  26
ENDBRANCH   5  24
TORSDOF 4
