REMARK  5 active torsions:
REMARK  status: ('A' for Active; 'I' for Inactive)
REMARK    1  A    between atoms: C_4  and  C_5 
REMARK    2  A    between atoms: C_5  and  C_7 
REMARK    3  A    between atoms: C_7  and  C_8 
REMARK    4  A    between atoms: C_8  and  C_9 
REMARK    5  A    between atoms: C_22  and  O_23 
ROOT
ATOM      1  C   UNL d   1       0.176  -0.519   1.236  0.00  0.00    -0.002 C 
ATOM      2  C   UNL d   1       0.889  -0.839   2.534  0.00  0.00     0.006 C 
ATOM      3  C   UNL d   1       2.327  -1.119   2.097  0.00  0.00     0.006 C 
ATOM      4  C   UNL d   1       2.429  -0.666   0.635  0.00  0.00    -0.002 C 
ATOM      5  C   UNL d   1       1.192   0.195   0.372  0.00  0.00    -0.036 C 
ATOM      6  C   UNL d   1       1.395   1.649   0.822  0.00  0.00     0.016 C 
ATOM      7  C   UNL d   1       0.683   0.146  -1.067  0.00  0.00     0.010 C 
ATOM      8  C   UNL d   1      -0.681   0.849  -1.173  0.00  0.00     0.006 C 
ATOM      9  C   UNL d   1      -1.713   0.282  -0.169  0.00  0.00    -0.002 C 
ATOM     10  C   UNL d   1      -1.171   0.199   1.279  0.00  0.00    -0.005 C 
ATOM     11  C   UNL d   1      -2.143  -0.538   2.216  0.00  0.00     0.006 C 
ATOM     12  C   UNL d   1      -3.540  -0.736   1.628  0.00  0.00     0.006 C 
ATOM     13  C   UNL d   1      -4.022   0.536   0.928  0.00  0.00    -0.004 C 
ATOM     14  C   UNL d   1      -5.488   0.394   0.500  0.00  0.00     0.037 C 
ATOM     15  C   UNL d   1      -5.672  -0.537  -0.709  0.00  0.00     0.118 C 
ATOM     16  C   UNL d   1      -4.469  -0.559  -1.656  0.00  0.00     0.032 C 
ATOM     17  C   UNL d   1      -3.711   0.763  -1.614  0.00  0.00     0.012 C 
ATOM     18  C   UNL d   1      -3.084   1.003  -0.229  0.00  0.00    -0.036 C 
ATOM     19  C   UNL d   1      -2.890   2.504  -0.067  0.00  0.00     0.016 C 
ENDROOT
BRANCH   4  20
ATOM     20  C   UNL d   1       3.821  -0.127   0.255  0.00  0.00    -0.013 C 
ATOM     21  C   UNL d   1       4.309   1.000   1.157  0.00  0.00     0.010 C 
BRANCH  20  22
ATOM     22  C   UNL d   1       3.890   0.272  -1.215  0.00  0.00     0.015 C 
BRANCH  22  23
ATOM     23  C   UNL d   1       5.329   0.319  -1.712  0.00  0.00     0.113 C 
BRANCH  23  24
ATOM     24  C   UNL d   1       5.866  -1.058  -1.906  0.00  0.00     0.172 C 
ATOM     25  O   UNL d   1       6.545  -1.690  -0.874  0.00  0.00    -0.648 OA
ATOM     26  O   UNL d   1       5.677  -1.660  -2.995  0.00  0.00    -0.648 OA
ENDBRANCH  23  24
ENDBRANCH  22  23
ENDBRANCH  20  22
ENDBRANCH   4  20
BRANCH  15  27
ATOM     27  O   UNL d   1      -5.945  -1.833  -0.273  0.00  0.00    -0.396 OA
ATOM     28  HO  UNL d   1      -6.059  -2.409  -1.021  1.00  0.00     0.210 HD
ENDBRANCH  15  27
TORSDOF 5
