REMARK  8 active torsions:
REMARK  status: ('A' for Active; 'I' for Inactive)
REMARK    1  A    between atoms: C_2  and  C_3 
REMARK    2  A    between atoms: C_3  and  C_6 
REMARK    3  A    between atoms: C_6  and  O_8 
REMARK    4  A    between atoms: C_9  and  O_8 
REMARK    5  A    between atoms: C_15  and  C_20 
REMARK    6  A    between atoms: C_20  and  C_21 
REMARK    7  A    between atoms: C_22  and  C_21 
REMARK    8  A    between atoms: C_24  and  O_29 
ROOT
ATOM      1  C   UNL d   1      -0.941  -1.183   0.689  0.00  0.00     0.141 C 
ATOM      2  C   UNL d   1      -1.740  -2.230   1.497  0.00  0.00     0.041 C 
ATOM      3  C   UNL d   1      -1.898  -3.589   0.806  0.00  0.00     0.007 C 
ATOM      4  C   UNL d   1      -0.612  -4.005   0.161  0.00  0.00    -0.015 C 
ATOM      5  C   UNL d   1       0.117  -3.123  -0.521  0.00  0.00    -0.055 C 
ATOM      6  C   UNL d   1      -0.367  -1.690  -0.654  0.00  0.00     0.052 C 
ATOM      7  C   UNL d   1       0.766  -0.767  -1.149  0.00  0.00     0.004 C 
ATOM      8  C   UNL d   1       1.558  -1.390  -2.315  0.00  0.00     0.009 C 
ATOM      9  C   UNL d   1       2.067  -2.752  -1.944  0.00  0.00    -0.022 C 
ATOM     10  C   UNL d   1       1.377  -3.562  -1.141  0.00  0.00     0.004 C 
ATOM     11  C   UNL d   1       0.717  -1.497  -3.581  0.00  0.00     0.014 C 
ATOM     12  C   UNL d   1      -3.018  -3.535  -0.219  0.00  0.00     0.014 C 
ENDROOT
BRANCH   7  13
ATOM     13  C   UNL d   1       0.256   0.625  -1.517  0.00  0.00     0.009 C 
BRANCH  13  14
ATOM     14  C   UNL d   1       1.321   1.674  -1.241  0.00  0.00     0.033 C 
BRANCH  14  15
ATOM     15  C   UNL d   1       1.255   2.154   0.205  0.00  0.00     0.134 C 
ATOM     16  O   UNL d   1       1.535   1.086   1.113  0.00  0.00    -0.316 OA
ATOM     17  C   UNL d   1       2.799   0.856   1.665  0.00  0.00     0.261 C 
ATOM     18  C   UNL d   1       3.840   1.933   1.684  0.00  0.00     0.142 C 
ATOM     19  O   UNL d   1       3.033  -0.239   2.238  0.00  0.00    -0.265 OA
ATOM     20  C   UNL d   1       3.645   2.936   0.553  0.00  0.00     0.130 C 
ATOM     21  C   UNL d   1       2.179   3.355   0.425  0.00  0.00     0.065 C 
BRANCH  20  22
ATOM     22  O   UNL d   1       4.122   2.411  -0.649  0.00  0.00    -0.395 OA
ATOM     23  HO  UNL d   1       5.033   2.151  -0.570  1.00  0.00     0.210 HD
ENDBRANCH  20  22
ENDBRANCH  14  15
ENDBRANCH  13  14
ENDBRANCH   7  13
BRANCH   1  24
ATOM     24  O   UNL d   1      -1.745  -0.030   0.474  0.00  0.00    -0.315 OA
BRANCH  24  25
ATOM     25  C   UNL d   1      -1.932   0.946   1.458  0.00  0.00     0.267 C 
ATOM     26  O   UNL d   1      -1.423   0.796   2.604  0.00  0.00    -0.264 OA
BRANCH  25  27
ATOM     27  C   UNL d   1      -2.779   2.160   1.168  0.00  0.00     0.040 C 
ATOM     28  C   UNL d   1      -2.055   3.404   1.649  0.00  0.00     0.025 C 
ATOM     29  C   UNL d   1      -3.014   2.320  -0.328  0.00  0.00     0.025 C 
BRANCH  27  30
ATOM     30  C   UNL d   1      -4.118   2.072   1.904  0.00  0.00     0.014 C 
ATOM     31  C   UNL d   1      -4.947   0.864   1.488  0.00  0.00     0.006 C 
ENDBRANCH  27  30
ENDBRANCH  25  27
ENDBRANCH  24  25
ENDBRANCH   1  24
TORSDOF 8
