REMARK  Name = fda_6382
REMARK  3 active torsions:
REMARK  status: ('A' for Active; 'I' for Inactive)
REMARK    1  A    between atoms: C_5  and  S_8
REMARK    2  A    between atoms: S_8  and  N_11
REMARK    3  A    between atoms: N_11  and  C_12
REMARK                            x       y       z     vdW  Elec       q    Type
REMARK                         _______ _______ _______ _____ _____    ______ ____
ROOT
ATOM      1  N   UNL A   1      -0.089  -2.503  -0.121  0.00  0.00    -0.075 NA
ENDROOT
BRANCH   1   2
ATOM      2  C   UNL A   1      -1.031  -1.516  -0.543  0.00  0.00    +0.191 A 
ATOM      3  C   UNL A   1      -1.931  -1.814  -1.570  0.00  0.00    +0.136 A 
ATOM      4  N   UNL A   1      -2.824  -0.873  -1.978  0.00  0.00    -0.239 NA
ATOM      5  C   UNL A   1      -2.855   0.358  -1.402  0.00  0.00    +0.099 A 
ATOM      6  C   UNL A   1      -3.774   1.320  -1.828  0.00  0.00    +0.021 A 
ATOM      7  C   UNL A   1      -3.789   2.582  -1.224  0.00  0.00    +0.002 A 
ATOM      8  C   UNL A   1      -2.888   2.881  -0.196  0.00  0.00    +0.002 A 
ATOM      9  C   UNL A   1      -1.966   1.921   0.234  0.00  0.00    +0.021 A 
ATOM     10  C   UNL A   1      -1.948   0.660  -0.366  0.00  0.00    +0.100 A 
ATOM     11  N   UNL A   1      -1.060  -0.285   0.037  0.00  0.00    -0.225 NA
ENDBRANCH   1   2
BRANCH   1  12
ATOM     12  S   UNL A   1       1.073  -2.207   1.129  0.00  0.00    +0.094 S 
ATOM     13  O   UNL A   1       0.355  -2.021   2.437  0.00  0.00    -0.148 OA
ATOM     14  O   UNL A   1       1.996  -3.387   1.243  0.00  0.00    -0.148 OA
BRANCH  12  19
ATOM     15  N   UNL A   1       4.234   2.676  -0.238  0.00  0.00    -0.128 NA
ATOM     16  C   UNL A   1       3.486   1.512   0.091  0.00  0.00    +0.089 A 
ATOM     17  C   UNL A   1       2.812   1.438   1.314  0.00  0.00    +0.019 A 
ATOM     18  C   UNL A   1       2.076   0.294   1.638  0.00  0.00    +0.022 A 
ATOM     19  C   UNL A   1       2.014  -0.778   0.740  0.00  0.00    +0.127 A 
ATOM     20  C   UNL A   1       2.687  -0.701  -0.484  0.00  0.00    +0.022 A 
ATOM     21  C   UNL A   1       3.424   0.443  -0.807  0.00  0.00    +0.019 A 
ENDBRANCH  12  19
ENDBRANCH   1  12
TORSDOF 3
