REMARK  1 active torsions:
REMARK  status: ('A' for Active; 'I' for Inactive)
REMARK    1  A    between atoms: C_10  and  O_11 
ROOT
ATOM      1  C   UNL d   1       3.170  -1.287  -1.649  0.00  0.00     0.018 C 
ATOM      2  C   UNL d   1       2.820  -0.355  -0.507  0.00  0.00    -0.014 C 
ATOM      3  C   UNL d   1       1.838   0.716  -1.036  0.00  0.00     0.012 C 
ATOM      4  C   UNL d   1       1.077   1.409   0.093  0.00  0.00     0.007 C 
ATOM      5  C   UNL d   1       0.250   0.406   0.917  0.00  0.00     0.001 C 
ATOM      6  C   UNL d   1       0.718  -1.058   0.786  0.00  0.00    -0.005 C 
ATOM      7  C   UNL d   1       2.244  -1.182   0.658  0.00  0.00     0.001 C 
ATOM      8  C   UNL d   1       2.973  -0.746   1.928  0.00  0.00     0.008 C 
ATOM      9  C   UNL d   1       3.904   0.385   1.540  0.00  0.00     0.033 C 
ATOM     10  C   UNL d   1       4.109   0.248   0.049  0.00  0.00     0.126 C 
ATOM     11  C   UNL d   1       0.153  -1.939   1.915  0.00  0.00     0.008 C 
ATOM     12  C   UNL d   1      -1.315  -1.637   2.268  0.00  0.00     0.042 C 
ATOM     13  C   UNL d   1      -1.972  -0.779   1.194  0.00  0.00     0.102 A 
ATOM     14  C   UNL d   1      -1.290   0.572   0.820  0.00  0.00    -0.004 C 
ATOM     15  C   UNL d   1      -1.733   1.117  -0.550  0.00  0.00     0.039 C 
ATOM     16  C   UNL d   1      -1.895   0.023  -1.585  0.00  0.00     0.166 C 
ATOM     17  C   UNL d   1      -2.968  -0.909  -1.097  0.00  0.00     0.176 C 
ATOM     18  C   UNL d   1      -2.819  -1.556   0.245  0.00  0.00     0.228 A 
ATOM     19  O   UNL d   1      -3.377  -0.735   1.257  0.00  0.00    -0.360 OA
ATOM     20  O   UNL d   1      -3.947  -1.171  -1.781  0.00  0.00    -0.294 OA
ATOM     21  C   UNL d   1      -2.212   0.625  -2.887  0.00  0.00     0.071 C 
ATOM     22  N   UNL d   1      -2.461   1.099  -3.913  0.00  0.00    -0.196 NA
ATOM     23  C   UNL d   1      -1.687   1.609   1.856  0.00  0.00     0.019 C 
ENDROOT
BRANCH  10  24
ATOM     24  O   UNL d   1       4.421   1.485  -0.522  0.00  0.00    -0.395 OA
ATOM     25  HO  UNL d   1       5.223   1.860  -0.176  1.00  0.00     0.210 HD
ENDBRANCH  10  24
TORSDOF 1
