REMARK  13 active torsions:
REMARK  status: ('A' for Active; 'I' for Inactive)
REMARK    1  A    between atoms: C_2  and  O_4 
REMARK    2  A    between atoms: O_4  and  C_5 
REMARK    3  A    between atoms: C_5  and  O_7 
REMARK    4  A    between atoms: O_7  and  C_8 
REMARK    5  A    between atoms: C_8  and  O_10 
REMARK    6  A    between atoms: O_10  and  C_11 
REMARK    7  A    between atoms: C_11  and  C_13 
REMARK    8  A    between atoms: C_14  and  C_38 
REMARK    9  A    between atoms: C_21  and  N_22 
REMARK       I    between atoms: N_22  and  C_24 
REMARK   10  A    between atoms: C_24  and  C_26 
REMARK   11  A    between atoms: C_26  and  C_31 
REMARK   12  A    between atoms: N_27  and  O_29 
REMARK   13  A    between atoms: C_38  and  O_39 
ROOT
ATOM      1  C   UNL d   1       1.467   0.766  -0.877  0.00  0.00     0.119 C 
ATOM      2  C   UNL d   1       1.037   0.628  -2.147  0.00  0.00    -0.014 C 
ATOM      3  C   UNL d   1      -0.445   0.601  -2.412  0.00  0.00     0.115 C 
ATOM      4  S   UNL d   1      -1.325   2.052  -1.710  0.00  0.00    -0.136 SA
ATOM      5  C   UNL d   1      -0.683   1.939   0.022  0.00  0.00     0.187 A 
ATOM      6  N   UNL d   1       0.479   1.089   0.094  0.00  0.00    -0.294 N 
ATOM      7  C   UNL d   1      -0.184   0.337   1.181  0.00  0.00     0.251 A 
ATOM      8  O   UNL d   1       0.135  -0.637   1.912  0.00  0.00    -0.271 OA
ATOM      9  C   UNL d   1      -1.423   1.159   0.992  0.00  0.00     0.211 A 
ENDROOT
BRANCH   9  10
ATOM     10  N   UNL d   1      -2.460   0.330   0.388  0.00  0.00    -0.340 N 
ATOM     11  C   UNL d   1      -3.811   0.777   0.238  0.00  0.00     0.273 C 
ATOM     12  O   UNL d   1      -4.144   1.917   0.661  0.00  0.00    -0.266 OA
ATOM     13  HN  UNL d   1      -2.213  -0.604   0.062  1.00  0.00     0.163 HD
BRANCH  11  14
ATOM     14  C   UNL d   1      -4.798  -0.094  -0.434  0.00  0.00     0.149 C 
ATOM     15  N   UNL d   1      -4.370  -1.208  -0.954  0.00  0.00    -0.260 N 
ATOM     16  HN  UNL d   1      -3.373  -1.415  -0.898  1.00  0.00     0.194 HD
BRANCH  15  17
ATOM     17  O   UNL d   1      -5.192  -2.121  -1.574  0.00  0.00    -0.285 OA
ATOM     18  C   UNL d   1      -4.649  -3.314  -2.109  0.00  0.00     0.237 C 
ENDBRANCH  15  17
BRANCH  14  19
ATOM     19  C   UNL d   1      -6.232   0.301  -0.497  0.00  0.00     0.075 A 
ATOM     20  N   UNL d   1      -6.781   1.142   0.424  0.00  0.00    -0.337 N 
ATOM     21  C   UNL d   1      -8.082   1.376   0.172  0.00  0.00     0.159 A 
ATOM     22  HN  UNL d   1      -6.268   1.546   1.208  1.00  0.00     0.168 HD
ATOM     23  S   UNL d   1      -8.611   0.566  -1.191  0.00  0.00    -0.067 SA
ATOM     24  N   UNL d   1      -8.896   2.219   0.978  0.00  0.00    -0.074 NA
ATOM     25  C   UNL d   1      -7.109  -0.135  -1.499  0.00  0.00     0.085 A 
ENDBRANCH  14  19
ENDBRANCH  11  14
ENDBRANCH   9  10
BRANCH   1  26
ATOM     26  C   UNL d   1       2.877   0.648  -0.438  0.00  0.00     0.313 C 
ATOM     27  O   UNL d   1       3.801   0.398  -1.260  0.00  0.00    -0.258 OA
BRANCH  26  28
ATOM     28  O   UNL d   1       3.173   0.822   0.921  0.00  0.00    -0.284 OA
BRANCH  28  29
ATOM     29  C   UNL d   1       4.488   0.731   1.467  0.00  0.00     0.277 C 
ATOM     30  C   UNL d   1       5.363   1.865   0.953  0.00  0.00     0.072 C 
BRANCH  29  31
ATOM     31  O   UNL d   1       5.065  -0.535   1.160  0.00  0.00    -0.266 OA
BRANCH  31  32
ATOM     32  C   UNL d   1       6.165  -1.045   1.851  0.00  0.00     0.409 C 
ATOM     33  O   UNL d   1       6.678  -0.396   2.806  0.00  0.00    -0.229 OA
BRANCH  32  34
ATOM     34  O   UNL d   1       6.686  -2.290   1.471  0.00  0.00    -0.293 OA
BRANCH  34  35
ATOM     35  C   UNL d   1       7.806  -2.920   2.095  0.00  0.00     0.126 C 
ATOM     36  C   UNL d   1       9.066  -2.084   1.944  0.00  0.00     0.040 C 
ATOM     37  C   UNL d   1       7.530  -3.220   3.558  0.00  0.00     0.040 C 
ENDBRANCH  34  35
ENDBRANCH  32  34
ENDBRANCH  31  32
ENDBRANCH  29  31
ENDBRANCH  28  29
ENDBRANCH  26  28
ENDBRANCH   1  26
BRANCH   2  38
ATOM     38  C   UNL d   1       1.944   0.380  -3.308  0.00  0.00     0.204 C 
BRANCH  38  39
ATOM     39  O   UNL d   1       2.246  -0.980  -3.390  0.00  0.00    -0.392 OA
ATOM     40  C   UNL d   1       3.186  -1.065  -4.416  0.00  0.00     0.201 C 
ENDBRANCH  38  39
ENDBRANCH   2  38
TORSDOF 13
