REMARK  5 active torsions:
REMARK  status: ('A' for Active; 'I' for Inactive)
REMARK    1  A    between atoms: C1*_10  and  N1_3 
REMARK    2  A    between atoms: C2*_11  and  O2*_20 
REMARK    3  A    between atoms: C3*_12  and  O3*_18 
REMARK    4  A    between atoms: C4*_13  and  C5*_15 
REMARK    5  A    between atoms: C5*_15  and  O5*_16 
ROOT
ATOM      1  C1*  C1 d   1      -0.436   0.012   0.716  0.00  0.00     0.263 C 
ATOM      2  C2*  C1 d   1      -1.058  -1.288   0.256  0.00  0.00     0.198 C 
ATOM      3  C3*  C1 d   1      -2.469  -0.909  -0.034  0.00  0.00     0.182 C 
ATOM      4  C4*  C1 d   1      -2.382   0.575  -0.309  0.00  0.00     0.179 C 
ATOM      5  O4*  C1 d   1      -1.237   1.102   0.318  0.00  0.00    -0.353 OA
ENDROOT
BRANCH   1   6
ATOM      6  N1   C1 d   1       0.926   0.154   0.201  0.00  0.00    -0.280 N 
ATOM      7  C6   C1 d   1       1.127   0.358  -1.133  0.00  0.00     0.102 A 
ATOM      8  C5   C1 d   1       2.416   0.487  -1.643  0.00  0.00     0.062 A 
ATOM      9  C4   C1 d   1       3.487   0.399  -0.759  0.00  0.00     0.121 A 
ATOM     10  N3   C1 d   1       3.260   0.192   0.563  0.00  0.00    -0.297 N 
ATOM     11  N4   C1 d   1       4.820   0.525  -1.241  0.00  0.00    -0.083 NA
ATOM     12  C2   C1 d   1       1.996   0.068   1.048  0.00  0.00     0.329 A 
ATOM     13  H3   C1 d   1       4.051   0.128   1.203  1.00  0.00     0.171 HD
ATOM     14  O2   C1 d   1       1.825  -0.125   2.282  0.00  0.00    -0.246 OA
ENDBRANCH   1   6
BRANCH   2  15
ATOM     15  O2*  C1 d   1      -1.020  -2.223   1.289  0.00  0.00    -0.388 OA
ATOM     16  H2*  C1 d   1      -1.410  -3.040   1.000  1.00  0.00     0.210 HD
ENDBRANCH   2  15
BRANCH   4  17
ATOM     17  C5*  C1 d   1      -3.620   1.288   0.206  0.00  0.00     0.198 C 
BRANCH  17  18
ATOM     18  O5*  C1 d   1      -4.723   0.965  -0.586  0.00  0.00    -0.398 OA
ATOM     19  H5*  C1 d   1      -5.497   1.410  -0.264  1.00  0.00     0.209 HD
ENDBRANCH  17  18
ENDBRANCH   4  17
BRANCH   3  20
ATOM     20  O3*  C1 d   1      -2.914  -1.579  -1.173  0.00  0.00    -0.390 OA
ATOM     21  H3*  C1 d   1      -3.814  -1.337  -1.357  1.00  0.00     0.210 HD
ENDBRANCH   3  20
TORSDOF 5
