REMARK  4 active torsions:
REMARK  status: ('A' for Active; 'I' for Inactive)
REMARK    1  A    between atoms: C_1  and  C_2 
REMARK    2  A    between atoms: C_6  and  C_1 
REMARK    3  A    between atoms: C_2  and  O_3 
REMARK    4  A    between atoms: C_20  and  O_21 
ROOT
ATOM      1  C   UNL d   1      -2.829   0.034   0.337  0.00  0.00     0.160 C 
ATOM      2  C   UNL d   1      -1.386  -0.348   0.747  0.00  0.00     0.004 C 
ATOM      3  C   UNL d   1      -1.284  -0.557   2.269  0.00  0.00     0.019 C 
ATOM      4  C   UNL d   1      -0.622   0.885   0.323  0.00  0.00     0.007 C 
ATOM      5  C   UNL d   1      -1.476   2.051   0.763  0.00  0.00     0.041 C 
ATOM      6  C   UNL d   1      -2.904   1.542   0.546  0.00  0.00     0.168 C 
ATOM      7  O   UNL d   1      -3.423   2.096  -0.623  0.00  0.00    -0.347 OA
ATOM      8  C   UNL d   1      -3.537   1.042  -1.549  0.00  0.00     0.159 C 
ATOM      9  C   UNL d   1      -4.998   0.852  -1.914  0.00  0.00     0.078 C 
ATOM     10  C   UNL d   1      -2.772   1.406  -2.806  0.00  0.00     0.078 C 
ATOM     11  O   UNL d   1      -3.023  -0.164  -1.036  0.00  0.00    -0.334 OA
ATOM     12  C   UNL d   1       0.854   0.844   0.716  0.00  0.00     0.035 C 
ATOM     13  C   UNL d   1       1.514  -0.366  -0.010  0.00  0.00     0.147 C 
ATOM     14  F   UNL d   1       1.425  -0.138  -1.380  0.00  0.00    -0.238 F 
ATOM     15  C   UNL d   1       0.730  -1.691   0.257  0.00  0.00     0.160 C 
ATOM     16  C   UNL d   1      -0.788  -1.553   0.005  0.00  0.00     0.048 C 
ATOM     17  C   UNL d   1       3.034  -0.449   0.350  0.00  0.00     0.036 C 
ATOM     18  C   UNL d   1       3.255  -0.731   1.834  0.00  0.00     0.028 C 
ATOM     19  C   UNL d   1       3.668   0.910   0.064  0.00  0.00    -0.061 C 
ATOM     20  C   UNL d   1       3.028   2.129   0.651  0.00  0.00     0.036 C 
ATOM     21  C   UNL d   1       1.542   2.153   0.306  0.00  0.00     0.013 C 
ATOM     22  C   UNL d   1       4.802   1.046  -0.628  0.00  0.00     0.058 C 
ATOM     23  C   UNL d   1       5.454  -0.122  -1.224  0.00  0.00     0.172 C 
ATOM     24  O   UNL d   1       6.545   0.006  -1.838  0.00  0.00    -0.289 OA
ATOM     25  C   UNL d   1       4.811  -1.433  -1.129  0.00  0.00     0.052 C 
ATOM     26  C   UNL d   1       3.687  -1.580  -0.424  0.00  0.00    -0.006 C 
ENDROOT
BRANCH   1  27
ATOM     27  C   UNL d   1      -3.914  -0.703   1.121  0.00  0.00     0.188 C 
ATOM     28  O   UNL d   1      -4.482  -0.137   2.043  0.00  0.00    -0.292 OA
BRANCH  27  29
ATOM     29  C   UNL d   1      -4.296  -2.134   0.848  0.00  0.00     0.245 C 
BRANCH  29  30
ATOM     30  O   UNL d   1      -3.565  -2.687  -0.204  0.00  0.00    -0.393 OA
ATOM     31  HO  UNL d   1      -3.806  -3.590  -0.376  1.00  0.00     0.209 HD
ENDBRANCH  29  30
ENDBRANCH  27  29
ENDBRANCH   1  27
BRANCH  15  32
ATOM     32  O   UNL d   1       0.953  -2.204   1.537  0.00  0.00    -0.392 OA
ATOM     33  HO  UNL d   1       0.475  -3.009   1.699  1.00  0.00     0.210 HD
ENDBRANCH  15  32
TORSDOF 4
