REMARK  1 active torsions:
REMARK  status: ('A' for Active; 'I' for Inactive)
REMARK    1  A    between atoms: C_6  and  C_7 
ROOT
ATOM      1  C   UNL d   1       1.216  -0.274   0.999  0.00  0.00     0.198 A 
ATOM      2  C   UNL d   1       2.514   0.108   0.527  0.00  0.00     0.132 A 
ATOM      3  C   UNL d   1       2.156  -0.503  -0.787  0.00  0.00     0.204 A 
ATOM      4  O   UNL d   1       2.745  -0.661  -1.887  0.00  0.00    -0.280 OA
ATOM      5  N   UNL d   1       0.789  -0.755  -0.285  0.00  0.00    -0.218 NA
ATOM      6  C   UNL d   1      -0.514  -0.454  -0.848  0.00  0.00     0.191 C 
ATOM      7  C   UNL d   1      -0.923   0.902  -0.209  0.00  0.00     0.084 C 
ATOM      8  C   UNL d   1      -0.597   2.005  -1.199  0.00  0.00     0.034 C 
ATOM      9  C   UNL d   1      -2.401   1.011   0.146  0.00  0.00     0.034 C 
ATOM     10  S   UNL d   1       0.109   1.089   1.262  0.00  0.00     0.172 S 
ATOM     11  O   UNL d   1       0.829   2.409   1.302  0.00  0.00    -0.225 OA
ATOM     12  O   UNL d   1      -0.677   0.884   2.526  0.00  0.00    -0.225 OA
ENDROOT
BRANCH   6  13
ATOM     13  C   UNL d   1      -1.456  -1.589  -0.561  0.00  0.00     0.193 C 
ATOM     14  O   UNL d   1      -2.209  -2.131  -1.593  0.00  0.00    -0.647 OA
ATOM     15  O   UNL d   1      -1.581  -2.042   0.608  0.00  0.00    -0.647 OA
ENDBRANCH   6  13
TORSDOF 1
