REMARK  Name = fda_6211
REMARK  18 active torsions:
REMARK  status: ('A' for Active; 'I' for Inactive)
REMARK    1  A    between atoms: S_2  and  N_5
REMARK    2  A    between atoms: N_5  and  C_6
REMARK    3  A    between atoms: C_9  and  C_19
REMARK    4  A    between atoms: C_10  and  C_15
REMARK    5  A    between atoms: C_15  and  C_16
REMARK    6  A    between atoms: C_16  and  C_17
REMARK    7  A    between atoms: C_19  and  C_21
REMARK    8  A    between atoms: C_24  and  O_27
REMARK    9  A    between atoms: O_27  and  C_28
REMARK   10  A    between atoms: C_28  and  C_29
REMARK   11  A    between atoms: C_29  and  C_30
REMARK   12  A    between atoms: C_30  and  N_31
REMARK   13  A    between atoms: N_31  and  C_32
REMARK   14  A    between atoms: N_31  and  C_36
REMARK   15  A    between atoms: C_32  and  C_33
REMARK   16  A    between atoms: C_33  and  C_34
REMARK   17  A    between atoms: C_36  and  C_37
REMARK   18  A    between atoms: C_37  and  C_38
REMARK                            x       y       z     vdW  Elec       q    Type
REMARK                         _______ _______ _______ _____ _____    ______ ____
ROOT
ATOM      1  C   UNL A   1      -2.540  -1.733   2.273  0.00  0.00    +0.198 C 
ATOM      2  O   UNL A   1      -2.674  -2.326   3.378  0.00  0.00    -0.286 OA
ENDROOT
BRANCH   1   6
ATOM      3  C   UNL A   1      -3.564   2.156   0.015  0.00  0.00    +0.091 A 
ATOM      4  C   UNL A   1      -3.067   1.042   0.716  0.00  0.00    +0.021 A 
ATOM      5  C   UNL A   1      -3.928  -0.033   0.928  0.00  0.00    +0.042 A 
ATOM      6  C   UNL A   1      -3.751  -1.233   1.589  0.00  0.00    +0.072 A 
ATOM      7  C   UNL A   1      -4.994  -1.859   1.517  0.00  0.00    +0.126 A 
ATOM      8  O   UNL A   1      -5.854  -1.110   0.851  0.00  0.00    -0.458 OA
ATOM      9  C   UNL A   1      -5.230  -0.013   0.498  0.00  0.00    +0.145 A 
ATOM     10  C   UNL A   1      -5.755   1.070  -0.202  0.00  0.00    +0.039 A 
ATOM     11  C   UNL A   1      -4.904   2.162  -0.444  0.00  0.00    +0.021 A 
BRANCH   3  12
ATOM     12  N   UNL A   1      -2.698   3.271  -0.213  0.00  0.00    -0.101 NA
BRANCH  12  14
ATOM     13  C   UNL A   1      -4.544   5.478  -0.186  0.00  0.00    +0.202 C 
ATOM     14  S   UNL A   1      -3.184   4.714  -1.041  0.00  0.00    +0.075 S 
ATOM     15  O   UNL A   1      -3.585   4.380  -2.450  0.00  0.00    -0.153 OA
ATOM     16  O   UNL A   1      -2.030   5.674  -1.072  0.00  0.00    -0.153 OA
ENDBRANCH  12  14
ENDBRANCH   3  12
BRANCH   7  17
ATOM     17  C   UNL A   1      -5.327  -3.206   2.071  0.00  0.00    +0.065 C 
BRANCH  17  18
ATOM     18  C   UNL A   1      -5.344  -4.258   0.970  0.00  0.00    +0.008 C 
BRANCH  18  19
ATOM     19  C   UNL A   1      -3.944  -4.554   0.450  0.00  0.00    +0.001 C 
ATOM     20  C   UNL A   1      -3.150  -5.346   1.472  0.00  0.00    +0.000 C 
ENDBRANCH  18  19
ENDBRANCH  17  18
ENDBRANCH   7  17
ENDBRANCH   1   6
BRANCH   1  21
ATOM     21  C   UNL A   1      -1.187  -1.576   1.698  0.00  0.00    +0.039 A 
ATOM     22  C   UNL A   1      -1.009  -1.283   0.338  0.00  0.00    +0.006 A 
ATOM     23  C   UNL A   1       0.275  -1.166  -0.202  0.00  0.00    +0.037 A 
ATOM     24  C   UNL A   1       1.400  -1.350   0.607  0.00  0.00    +0.139 A 
ATOM     25  C   UNL A   1       1.227  -1.658   1.966  0.00  0.00    +0.037 A 
ATOM     26  C   UNL A   1      -0.057  -1.773   2.505  0.00  0.00    +0.006 A 
BRANCH  24  27
ATOM     27  O   UNL A   1       2.669  -1.223   0.039  0.00  0.00    -0.475 OA
BRANCH  27  28
ATOM     28  C   UNL A   1       3.866  -1.421   0.782  0.00  0.00    +0.207 C 
BRANCH  28  29
ATOM     29  C   UNL A   1       5.070  -1.179  -0.107  0.00  0.00    +0.065 C 
BRANCH  29  30
ATOM     30  C   UNL A   1       5.204   0.302  -0.412  0.00  0.00    +0.076 C 
BRANCH  30  31
ATOM     31  N   UNL A   1       6.321   0.517  -1.318  0.00  0.00    -0.273 NA
BRANCH  31  32
ATOM     32  C   UNL A   1       5.951   1.622  -2.187  0.00  0.00    +0.072 C 
BRANCH  32  33
ATOM     33  C   UNL A   1       5.485   1.084  -3.526  0.00  0.00    +0.017 C 
BRANCH  33  34
ATOM     34  C   UNL A   1       5.067   2.236  -4.415  0.00  0.00    +0.001 C 
ATOM     35  C   UNL A   1       4.617   1.697  -5.756  0.00  0.00    +0.000 C 
ENDBRANCH  33  34
ENDBRANCH  32  33
ENDBRANCH  31  32
BRANCH  31  36
ATOM     36  C   UNL A   1       7.444   0.983  -0.516  0.00  0.00    +0.072 C 
BRANCH  36  37
ATOM     37  C   UNL A   1       8.456  -0.140  -0.320  0.00  0.00    +0.017 C 
BRANCH  37  38
ATOM     38  C   UNL A   1       9.135  -0.508  -1.631  0.00  0.00    +0.001 C 
ATOM     39  C   UNL A   1      10.134   0.560  -2.031  0.00  0.00    +0.000 C 
ENDBRANCH  37  38
ENDBRANCH  36  37
ENDBRANCH  31  36
ENDBRANCH  30  31
ENDBRANCH  29  30
ENDBRANCH  28  29
ENDBRANCH  27  28
ENDBRANCH  24  27
ENDBRANCH   1  21
TORSDOF 18
