REMARK  4 active torsions:
REMARK  status: ('A' for Active; 'I' for Inactive)
REMARK    1  A    between atoms: C_1  and  C_2 
REMARK    2  A    between atoms: C_5  and  C_1 
REMARK    3  A    between atoms: C_5  and  C_6 
REMARK    4  A    between atoms: C_6  and  N_7 
ROOT
ATOM      1  C   UNL d   1       0.389   0.612  -0.144  0.00  0.00     0.001 C 
ATOM      2  C   UNL d   1      -0.988   1.289  -0.280  0.00  0.00     0.001 C 
ATOM      3  C   UNL d   1      -1.172   1.194   1.236  0.00  0.00    -0.004 C 
ATOM      4  C   UNL d   1       0.046   0.240   1.309  0.00  0.00     0.001 C 
ATOM      5  C   UNL d   1      -0.395  -1.240   1.486  0.00  0.00     0.006 C 
ATOM      6  C   UNL d   1      -1.623  -1.644   0.628  0.00  0.00     0.005 C 
ATOM      7  C   UNL d   1      -2.582  -0.475   0.326  0.00  0.00    -0.014 C 
ATOM      8  C   UNL d   1      -2.051   0.335  -0.852  0.00  0.00     0.010 C 
ATOM      9  C   UNL d   1      -2.513   0.508   1.466  0.00  0.00     0.010 C 
ENDROOT
BRANCH   1  10
ATOM     10  C   UNL d   1       0.677  -0.540  -1.137  0.00  0.00     0.125 C 
BRANCH  10  11
ATOM     11  C   UNL d   1       1.972  -1.237  -0.863  0.00  0.00     0.173 C 
ATOM     12  O   UNL d   1       3.160  -0.719  -1.362  0.00  0.00    -0.648 OA
ATOM     13  O   UNL d   1       1.990  -2.288  -0.172  0.00  0.00    -0.648 OA
ENDBRANCH  10  11
ENDBRANCH   1  10
BRANCH   1  14
ATOM     14  C   UNL d   1       1.494   1.673  -0.164  0.00  0.00     0.240 C 
BRANCH  14  15
ATOM     15  N   UNL d   1       1.595   2.292  -1.476  0.00  0.00    -0.079 N 
ATOM     16  HN3 UNL d   1       1.726   1.598  -2.212  1.00  0.00     0.274 HD
ATOM     17  HN2 UNL d   1       0.700   2.675  -1.782  1.00  0.00     0.274 HD
ATOM     18  HN1 UNL d   1       2.331   2.999  -1.489  1.00  0.00     0.274 HD
ENDBRANCH  14  15
ENDBRANCH   1  14
TORSDOF 4
