REMARK  7 active torsions:
REMARK  status: ('A' for Active; 'I' for Inactive)
REMARK    1  A    between atoms: C_3  and  C_2 
REMARK    2  A    between atoms: C_3  and  C_4 
REMARK    3  A    between atoms: C_3  and  C_29 
REMARK    4  A    between atoms: C_4  and  C_5 
REMARK    5  A    between atoms: C_5  and  C_6 
REMARK    6  A    between atoms: C_6  and  C_8 
REMARK    7  A    between atoms: C_23  and  O_25 
ROOT
ATOM      1  C   UNL d   1       1.732   0.445  -0.296  0.00  0.00    -0.002 C 
ATOM      2  C   UNL d   1       1.864  -0.055  -1.746  0.00  0.00     0.006 C 
ATOM      3  C   UNL d   1       0.448  -0.388  -2.222  0.00  0.00     0.006 C 
ATOM      4  C   UNL d   1      -0.381  -0.240  -0.968  0.00  0.00    -0.001 C 
ATOM      5  C   UNL d   1       0.267   0.826  -0.115  0.00  0.00    -0.036 C 
ATOM      6  C   UNL d   1      -0.249   0.667   1.312  0.00  0.00     0.010 C 
ATOM      7  C   UNL d   1      -1.784   0.773   1.332  0.00  0.00     0.007 C 
ATOM      8  C   UNL d   1      -2.452  -0.291   0.422  0.00  0.00     0.003 C 
ATOM      9  C   UNL d   1      -1.909  -0.249  -1.022  0.00  0.00    -0.001 C 
ATOM     10  C   UNL d   1      -2.489   0.955  -1.753  0.00  0.00     0.033 C 
ATOM     11  C   UNL d   1      -3.983   0.872  -1.755  0.00  0.00    -0.023 C 
ATOM     12  C   UNL d   1      -4.680   0.343  -0.737  0.00  0.00    -0.072 C 
ATOM     13  C   UNL d   1      -4.011  -0.326   0.469  0.00  0.00    -0.017 C 
ATOM     14  C   UNL d   1      -4.431  -1.807   0.523  0.00  0.00     0.016 C 
ATOM     15  C   UNL d   1      -5.854  -2.111   0.012  0.00  0.00     0.033 C 
ATOM     16  C   UNL d   1      -6.749  -0.873  -0.006  0.00  0.00     0.122 C 
ATOM     17  C   UNL d   1      -6.166   0.191  -0.935  0.00  0.00     0.066 C 
ATOM     18  C   UNL d   1      -4.535   0.334   1.746  0.00  0.00     0.020 C 
ATOM     19  C   UNL d   1      -0.013   2.242  -0.633  0.00  0.00     0.016 C 
ENDROOT
BRANCH   1  20
ATOM     20  C   UNL d   1       2.769   1.496   0.140  0.00  0.00    -0.014 C 
ATOM     21  C   UNL d   1       3.085   2.541  -0.924  0.00  0.00     0.010 C 
BRANCH  20  22
ATOM     22  C   UNL d   1       4.037   0.851   0.692  0.00  0.00     0.005 C 
BRANCH  22  23
ATOM     23  C   UNL d   1       4.816   0.084  -0.376  0.00  0.00     0.005 C 
BRANCH  23  24
ATOM     24  C   UNL d   1       6.061  -0.610   0.183  0.00  0.00    -0.012 C 
BRANCH  24  25
ATOM     25  C   UNL d   1       7.046   0.359   0.839  0.00  0.00     0.000 C 
ATOM     26  C   UNL d   1       7.707   1.234  -0.209  0.00  0.00     0.005 C 
ENDBRANCH  24  25
BRANCH  24  27
ATOM     27  C   UNL d   1       5.717  -1.824   1.055  0.00  0.00    -0.019 C 
ATOM     28  C   UNL d   1       5.265  -1.444   2.458  0.00  0.00     0.010 C 
ATOM     29  C   UNL d   1       6.899  -2.770   1.137  0.00  0.00     0.010 C 
ENDBRANCH  24  27
ENDBRANCH  23  24
ENDBRANCH  22  23
ENDBRANCH  20  22
ENDBRANCH   1  20
BRANCH  16  30
ATOM     30  O   UNL d   1      -8.026  -1.223  -0.440  0.00  0.00    -0.395 OA
ATOM     31  HO  UNL d   1      -8.583  -0.453  -0.452  1.00  0.00     0.210 HD
ENDBRANCH  16  30
TORSDOF 7
