REMARK  2 active torsions:
REMARK  status: ('A' for Active; 'I' for Inactive)
REMARK    1  A    between atoms: C_2  and  C_3 
REMARK    2  A    between atoms: C_4  and  C_13 
ROOT
ATOM      1  C   UNL d   1      -1.494   0.677  -0.516  0.00  0.00     0.025 A 
ATOM      2  C   UNL d   1      -0.600  -0.279   0.016  0.00  0.00     0.038 A 
ATOM      3  C   UNL d   1      -1.156  -1.440   0.592  0.00  0.00     0.131 A 
ATOM      4  N   UNL d   1      -2.503  -1.606   0.620  0.00  0.00    -0.318 N 
ATOM      5  HN  UNL d   1      -2.894  -2.452   1.035  1.00  0.00     0.169 HD
ATOM      6  C   UNL d   1      -3.338  -0.670   0.106  0.00  0.00     0.194 A 
ATOM      7  N   UNL d   1      -2.834   0.458  -0.450  0.00  0.00    -0.333 N 
ATOM      8  HN  UNL d   1      -3.473   1.158  -0.827  1.00  0.00     0.168 HD
ATOM      9  N   UNL d   1      -4.745  -0.871   0.154  0.00  0.00    -0.063 NA
ATOM     10  N   UNL d   1      -0.323  -2.469   1.119  0.00  0.00    -0.082 NA
ENDROOT
BRANCH   2  11
ATOM     11  C   UNL d   1       0.869  -0.078  -0.026  0.00  0.00    -0.021 A 
ATOM     12  C   UNL d   1       1.637  -0.215   1.140  0.00  0.00     0.014 A 
ATOM     13  C   UNL d   1       3.021  -0.027   1.102  0.00  0.00     0.024 A 
ATOM     14  C   UNL d   1       3.649   0.299  -0.103  0.00  0.00     0.034 A 
ATOM     15  C   UNL d   1       2.893   0.436  -1.270  0.00  0.00     0.024 A 
ATOM     16 CL   UNL d   1       5.382   0.535  -0.151  0.00  0.00    -0.084 Cl
ATOM     17  C   UNL d   1       1.508   0.248  -1.232  0.00  0.00     0.014 A 
ENDBRANCH   2  11
BRANCH   1  18
ATOM     18  C   UNL d   1      -1.017   1.971  -1.093  0.00  0.00     0.054 C 
ATOM     19  C   UNL d   1      -0.949   3.029  -0.009  0.00  0.00     0.011 C 
ENDBRANCH   1  18
TORSDOF 2
