REMARK  7 active torsions:
REMARK  status: ('A' for Active; 'I' for Inactive)
REMARK    1  A    between atoms: C_2  and  N_3 
REMARK    2  A    between atoms: N_3  and  C_4 
REMARK    3  A    between atoms: N_3  and  C_6 
REMARK    4  A    between atoms: C_6  and  C_7 
REMARK    5  A    between atoms: C_7  and  N_8 
REMARK       I    between atoms: N_8  and  C_10 
REMARK    6  A    between atoms: C_10  and  C_12 
REMARK    7  A    between atoms: C_19  and  O_20 
ROOT
ATOM      1  N   UNL d   1       0.823   0.909  -0.698  0.00  0.00    -0.355 N 
ATOM      2  HN  UNL d   1       0.310   1.782  -0.817  1.00  0.00     0.162 HD
ATOM      3  C   UNL d   1       0.082  -0.303  -0.514  0.00  0.00     0.254 C 
ATOM      4  O   UNL d   1       0.699  -1.397  -0.396  0.00  0.00    -0.268 OA
ENDROOT
BRANCH   3   5
ATOM      5  C   UNL d   1      -1.399  -0.259  -0.468  0.00  0.00     0.067 A 
ATOM      6  C   UNL d   1      -2.035   0.983  -0.608  0.00  0.00     0.045 A 
ATOM      7  C   UNL d   1      -3.426   1.091  -0.573  0.00  0.00     0.059 A 
ATOM      8 CL   UNL d   1      -4.162   2.674  -0.754  0.00  0.00    -0.082 Cl
ATOM      9  C   UNL d   1      -4.207  -0.057  -0.396  0.00  0.00     0.070 A 
ATOM     10  N   UNL d   1      -5.628   0.027  -0.357  0.00  0.00    -0.101 NA
ATOM     11  C   UNL d   1      -3.589  -1.300  -0.255  0.00  0.00     0.066 A 
ATOM     12  C   UNL d   1      -2.189  -1.419  -0.289  0.00  0.00     0.085 A 
BRANCH  12  13
ATOM     13  O   UNL d   1      -1.583  -2.674  -0.146  0.00  0.00    -0.355 OA
ATOM     14  C   UNL d   1      -2.323  -3.874   0.038  0.00  0.00     0.210 C 
ENDBRANCH  12  13
ENDBRANCH   3   5
BRANCH   1  15
ATOM     15  C   UNL d   1       2.277   0.947  -0.721  0.00  0.00     0.153 C 
BRANCH  15  16
ATOM     16  C   UNL d   1       2.825   0.759   0.683  0.00  0.00     0.292 C 
BRANCH  16  17
ATOM     17  N   UNL d   1       4.280   0.757   0.646  0.00  0.00     0.089 N 
BRANCH  17  18
ATOM     18  C   UNL d   1       4.721   2.009   1.239  0.00  0.00     0.268 C 
ATOM     19  C   UNL d   1       5.109   2.987   0.146  0.00  0.00     0.037 C 
ENDBRANCH  17  18
BRANCH  17  20
ATOM     20  C   UNL d   1       4.722  -0.300   1.540  0.00  0.00     0.268 C 
ATOM     21  C   UNL d   1       5.005  -1.561   0.746  0.00  0.00     0.037 C 
ENDBRANCH  17  20
ENDBRANCH  16  17
ENDBRANCH  15  16
ENDBRANCH   1  15
TORSDOF 7
