REMARK  8 active torsions:
REMARK  status: ('A' for Active; 'I' for Inactive)
REMARK    1  A    between atoms: O_2  and  C_3 
REMARK    2  A    between atoms: C_6  and  C_7 
REMARK    3  A    between atoms: C_7  and  N_8 
REMARK    4  A    between atoms: N_11  and  C_14 
REMARK    5  A    between atoms: C_14  and  C_15 
REMARK    6  A    between atoms: C_14  and  C_22 
REMARK    7  A    between atoms: C_29  and  O_30 
REMARK    8  A    between atoms: C_32  and  O_33 
ROOT
ATOM      1  N   UNL d   1       1.163   0.991   0.691  0.00  0.00     0.096 N 
ATOM      2  C   UNL d   1       0.545   1.979  -0.209  0.00  0.00     0.303 C 
ATOM      3  C   UNL d   1      -0.703   1.443  -0.938  0.00  0.00     0.304 C 
ATOM      4  N   UNL d   1      -1.271   0.257  -0.289  0.00  0.00     0.105 N 
ATOM      5  C   UNL d   1      -1.244   0.433   1.163  0.00  0.00     0.304 C 
ATOM      6  C   UNL d   1       0.207   0.423   1.656  0.00  0.00     0.303 C 
ENDROOT
BRANCH   4   7
ATOM      7  C   UNL d   1      -2.639   0.054  -0.796  0.00  0.00     0.289 C 
BRANCH   7   8
ATOM      8  C   UNL d   1      -3.669   1.055  -0.324  0.00  0.00    -0.021 A 
ATOM      9  C   UNL d   1      -4.302   0.927   0.923  0.00  0.00     0.012 A 
ATOM     10  C   UNL d   1      -5.243   1.874   1.335  0.00  0.00     0.043 A 
ATOM     11  C   UNL d   1      -5.557   2.954   0.505  0.00  0.00     0.116 A 
ATOM     12  F   UNL d   1      -6.469   3.872   0.904  0.00  0.00    -0.206 F 
ATOM     13  C   UNL d   1      -4.929   3.087  -0.737  0.00  0.00     0.043 A 
ATOM     14  C   UNL d   1      -3.987   2.140  -1.149  0.00  0.00     0.012 A 
ENDBRANCH   7   8
BRANCH   7  15
ATOM     15  C   UNL d   1      -3.082  -1.378  -0.711  0.00  0.00    -0.021 A 
ATOM     16  C   UNL d   1      -3.093  -2.068   0.511  0.00  0.00     0.012 A 
ATOM     17  C   UNL d   1      -3.520  -3.397   0.564  0.00  0.00     0.043 A 
ATOM     18  C   UNL d   1      -3.940  -4.043  -0.603  0.00  0.00     0.116 A 
ATOM     19  F   UNL d   1      -4.354  -5.331  -0.552  0.00  0.00    -0.206 F 
ATOM     20  C   UNL d   1      -3.935  -3.358  -1.821  0.00  0.00     0.043 A 
ATOM     21  C   UNL d   1      -3.507  -2.028  -1.874  0.00  0.00     0.012 A 
ENDBRANCH   7  15
ENDBRANCH   4   7
BRANCH   1  22
ATOM     22  C   UNL d   1       1.740  -0.097  -0.093  0.00  0.00     0.314 C 
BRANCH  22  23
ATOM     23  C   UNL d   1       3.216   0.095  -0.229  0.00  0.00     0.006 A 
ATOM     24  C   UNL d   1       3.657   0.884  -1.291  0.00  0.00     0.014 A 
ATOM     25  C   UNL d   1       5.005   1.188  -1.434  0.00  0.00     0.040 A 
ATOM     26  C   UNL d   1       5.940   0.722  -0.504  0.00  0.00     0.104 A 
ATOM     27  C   UNL d   1       5.521  -0.068   0.580  0.00  0.00     0.135 A 
ATOM     28  C   UNL d   1       4.148  -0.409   0.718  0.00  0.00     0.112 A 
BRANCH  26  29
ATOM     29  O   UNL d   1       7.299   1.032  -0.634  0.00  0.00    -0.353 OA
ATOM     30  C   UNL d   1       7.811   1.825  -1.697  0.00  0.00     0.210 C 
ENDBRANCH  26  29
BRANCH  27  31
ATOM     31  O   UNL d   1       6.518  -0.491   1.478  0.00  0.00    -0.351 OA
ATOM     32  C   UNL d   1       6.294  -1.246   2.660  0.00  0.00     0.210 C 
ENDBRANCH  27  31
BRANCH  28  33
ATOM     33  O   UNL d   1       3.754  -1.227   1.790  0.00  0.00    -0.352 OA
ATOM     34  C   UNL d   1       2.627  -2.092   1.776  0.00  0.00     0.210 C 
ENDBRANCH  28  33
ENDBRANCH  22  23
ENDBRANCH   1  22
TORSDOF 8
