REMARK  6 active torsions:
REMARK  status: ('A' for Active; 'I' for Inactive)
REMARK    1  A    between atoms: C_4  and  C_20 
REMARK    2  A    between atoms: C1*_8  and  N_7 
REMARK    3  A    between atoms: C2*_9  and  O2*_18 
REMARK    4  A    between atoms: C3*_10  and  O3*_16 
REMARK    5  A    between atoms: C4*_11  and  C5*_13 
REMARK    6  A    between atoms: C5*_13  and  O5*_14 
ROOT
ATOM      1  C1* UNL d   1       0.828  -1.200   0.889  0.00  0.00     0.276 C 
ATOM      2  C2* UNL d   1       1.495  -0.097   1.710  0.00  0.00     0.200 C 
ATOM      3  C3* UNL d   1       2.390   0.593   0.723  0.00  0.00     0.182 C 
ATOM      4  C4* UNL d   1       2.676  -0.550  -0.234  0.00  0.00     0.179 C 
ATOM      5  O4* UNL d   1       1.537  -1.370  -0.319  0.00  0.00    -0.352 OA
ENDROOT
BRANCH   1   6
ATOM      6  N   UNL d   1      -0.572  -0.907   0.599  0.00  0.00    -0.254 N 
ATOM      7  C   UNL d   1      -1.633  -1.463   1.208  0.00  0.00     0.205 A 
ATOM      8  N   UNL d   1      -2.776  -0.942   0.717  0.00  0.00    -0.332 N 
ATOM      9  C   UNL d   1      -2.335  -0.054  -0.201  0.00  0.00     0.187 A 
ATOM     10  HN  UNL d   1      -3.738  -1.164   0.976  1.00  0.00     0.168 HD
ATOM     11  N   UNL d   1      -0.992  -0.018  -0.283  0.00  0.00    -0.276 N 
ATOM     12  HN  UNL d   1      -0.423   0.567  -0.893  1.00  0.00     0.189 HD
BRANCH   9  13
ATOM     13  C   UNL d   1      -3.221   0.782  -1.016  0.00  0.00     0.300 C 
ATOM     14  O   UNL d   1      -4.470   0.696  -0.884  0.00  0.00    -0.268 OA
ATOM     15  N   UNL d   1      -2.674   1.696  -1.960  0.00  0.00    -0.054 NA
ENDBRANCH   9  13
ENDBRANCH   1   6
BRANCH   2  16
ATOM     16  O2* UNL d   1       0.581   0.781   2.303  0.00  0.00    -0.388 OA
ATOM     17  H2* UNL d   1       0.995   1.467   2.813  1.00  0.00     0.210 HD
ENDBRANCH   2  16
BRANCH   4  18
ATOM     18  C5* UNL d   1       3.109  -0.089  -1.620  0.00  0.00     0.198 C 
BRANCH  18  19
ATOM     19  O5* UNL d   1       4.361   0.522  -1.549  0.00  0.00    -0.398 OA
ATOM     20  H5* UNL d   1       4.631   0.809  -2.413  1.00  0.00     0.209 HD
ENDBRANCH  18  19
ENDBRANCH   4  18
BRANCH   3  21
ATOM     21  O3* UNL d   1       1.696   1.620   0.070  0.00  0.00    -0.390 OA
ATOM     22  H3* UNL d   1       2.263   2.057  -0.555  1.00  0.00     0.210 HD
ENDBRANCH   3  21
TORSDOF 6
