REMARK  8 active torsions:
REMARK  status: ('A' for Active; 'I' for Inactive)
REMARK    1  A    between atoms: C_2  and  C_3 
REMARK    2  A    between atoms: C_3  and  C_6 
REMARK    3  A    between atoms: C_6  and  O_8 
REMARK    4  A    between atoms: C_9  and  O_8 
REMARK    5  A    between atoms: C_15  and  C_20 
REMARK    6  A    between atoms: C_20  and  C_21 
REMARK    7  A    between atoms: C_22  and  C_21 
REMARK    8  A    between atoms: C_24  and  O_29 
ROOT
ATOM      1  C   UNL d   1      -1.219  -1.048   0.182  0.00  0.00     0.141 C 
ATOM      2  C   UNL d   1      -2.381  -2.002   0.450  0.00  0.00     0.041 C 
ATOM      3  C   UNL d   1      -1.869  -3.382   0.859  0.00  0.00     0.007 C 
ATOM      4  C   UNL d   1      -0.716  -3.847   0.013  0.00  0.00    -0.015 C 
ATOM      5  C   UNL d   1      -0.010  -3.038  -0.784  0.00  0.00    -0.055 C 
ATOM      6  C   UNL d   1      -0.396  -1.583  -1.003  0.00  0.00     0.052 C 
ATOM      7  C   UNL d   1       0.878  -0.758  -1.291  0.00  0.00     0.004 C 
ATOM      8  C   UNL d   1       1.682  -1.374  -2.454  0.00  0.00     0.009 C 
ATOM      9  C   UNL d   1       1.966  -2.830  -2.213  0.00  0.00    -0.022 C 
ATOM     10  C   UNL d   1       1.167  -3.596  -1.467  0.00  0.00     0.004 C 
ATOM     11  C   UNL d   1       0.960  -1.226  -3.788  0.00  0.00     0.014 C 
ATOM     12  C   UNL d   1      -1.455  -3.368   2.319  0.00  0.00     0.014 C 
ENDROOT
BRANCH   7  13
ATOM     13  C   UNL d   1       0.602   0.720  -1.556  0.00  0.00     0.009 C 
BRANCH  13  14
ATOM     14  C   UNL d   1       1.709   1.577  -0.964  0.00  0.00     0.033 C 
BRANCH  14  15
ATOM     15  C   UNL d   1       1.406   1.935   0.488  0.00  0.00     0.134 C 
ATOM     16  O   UNL d   1       1.342   0.761   1.301  0.00  0.00    -0.316 OA
ATOM     17  C   UNL d   1       2.503   0.128   1.737  0.00  0.00     0.261 C 
ATOM     18  C   UNL d   1       3.813   0.813   1.549  0.00  0.00     0.142 C 
ATOM     19  O   UNL d   1       2.445  -1.004   2.283  0.00  0.00    -0.265 OA
ATOM     20  C   UNL d   1       3.630   2.313   1.786  0.00  0.00     0.130 C 
ATOM     21  C   UNL d   1       2.458   2.933   1.000  0.00  0.00     0.065 C 
BRANCH  20  22
ATOM     22  O   UNL d   1       3.460   2.560   3.149  0.00  0.00    -0.395 OA
ATOM     23  HO  UNL d   1       4.182   2.178   3.634  1.00  0.00     0.210 HD
ENDBRANCH  20  22
ENDBRANCH  14  15
ENDBRANCH  13  14
ENDBRANCH   7  13
BRANCH   1  24
ATOM     24  O   UNL d   1      -1.740   0.243  -0.107  0.00  0.00    -0.315 OA
BRANCH  24  25
ATOM     25  C   UNL d   1      -2.116   1.139   0.899  0.00  0.00     0.267 C 
ATOM     26  O   UNL d   1      -2.036   0.798   2.112  0.00  0.00    -0.264 OA
BRANCH  25  27
ATOM     27  C   UNL d   1      -2.640   2.507   0.540  0.00  0.00     0.040 C 
ATOM     28  C   UNL d   1      -1.858   3.557   1.308  0.00  0.00     0.025 C 
ATOM     29  C   UNL d   1      -2.458   2.796  -0.944  0.00  0.00     0.025 C 
BRANCH  27  30
ATOM     30  C   UNL d   1      -4.117   2.638   0.922  0.00  0.00     0.014 C 
ATOM     31  C   UNL d   1      -5.009   1.637   0.199  0.00  0.00     0.006 C 
ENDBRANCH  27  30
ENDBRANCH  25  27
ENDBRANCH  24  25
ENDBRANCH   1  24
TORSDOF 8
