REMARK  5 active torsions:
REMARK  status: ('A' for Active; 'I' for Inactive)
REMARK    1  A    between atoms: N_1  and  C_3 
REMARK    2  A    between atoms: N_1  and  C_15 
REMARK    3  A    between atoms: C_7  and  C_8 
REMARK    4  A    between atoms: C_18  and  N_19 
REMARK    5  A    between atoms: N_19  and  C_21 
ROOT
ATOM      1  C   UNL d   1      -6.769   0.427   0.546  0.00  0.00     0.022 C 
ATOM      2  C   UNL d   1      -7.311   0.907  -0.567  0.00  0.00     0.094 C 
ATOM      3  C   UNL d   1      -8.687   1.317  -0.578  0.00  0.00     0.087 C 
ATOM      4  N   UNL d   1      -9.796   1.647  -0.587  0.00  0.00    -0.192 NA
ENDROOT
BRANCH   1   5
ATOM      5  C   UNL d   1      -5.368  -0.009   0.624  0.00  0.00    -0.035 A 
ATOM      6  C   UNL d   1      -4.515   0.047  -0.487  0.00  0.00     0.020 A 
ATOM      7  C   UNL d   1      -3.184  -0.368  -0.385  0.00  0.00    -0.034 A 
ATOM      8  C   UNL d   1      -2.687  -0.841   0.850  0.00  0.00     0.045 A 
ATOM      9  C   UNL d   1      -2.349  -0.358  -1.619  0.00  0.00     0.050 C 
ATOM     10  C   UNL d   1      -3.558  -0.930   1.951  0.00  0.00    -0.034 A 
ATOM     11  C   UNL d   1      -4.884  -0.506   1.835  0.00  0.00     0.020 A 
ATOM     12  C   UNL d   1      -3.087  -1.452   3.265  0.00  0.00     0.050 C 
BRANCH   8  13
ATOM     13  N   UNL d   1      -1.329  -1.289   0.989  0.00  0.00    -0.341 N 
ATOM     14  HN  UNL d   1      -1.180  -2.225   1.366  1.00  0.00     0.167 HD
BRANCH  13  15
ATOM     15  C   UNL d   1      -0.168  -0.525   0.641  0.00  0.00     0.122 A 
ATOM     16  N   UNL d   1       1.041  -1.144   0.585  0.00  0.00    -0.176 N 
ATOM     17  C   UNL d   1       2.175  -0.456   0.287  0.00  0.00     0.684 A 
ATOM     18  HN  UNL d   1       1.099  -2.145   0.770  1.00  0.00     0.186 HD
ATOM     19  N   UNL d   1       2.106   0.883   0.050  0.00  0.00    -0.202 N 
ATOM     20  C   UNL d   1       0.922   1.545   0.108  0.00  0.00     0.110 A 
ATOM     21  HN  UNL d   1       2.957   1.397  -0.176  1.00  0.00     0.183 HD
ATOM     22  C   UNL d   1      -0.248   0.852   0.411  0.00  0.00     0.066 A 
BRANCH  17  23
ATOM     23  N   UNL d   1       3.423  -1.159   0.234  0.00  0.00    -0.192 N 
ATOM     24  HN  UNL d   1       3.387  -2.159   0.429  1.00  0.00     0.184 HD
BRANCH  23  25
ATOM     25  C   UNL d   1       4.718  -0.616  -0.063  0.00  0.00     0.049 A 
ATOM     26  C   UNL d   1       4.909   0.744  -0.352  0.00  0.00     0.031 A 
ATOM     27  C   UNL d   1       6.187   1.234  -0.636  0.00  0.00     0.025 A 
ATOM     28  C   UNL d   1       7.284   0.368  -0.634  0.00  0.00     0.044 A 
ATOM     29  C   UNL d   1       8.596   0.870  -0.925  0.00  0.00     0.099 C 
ATOM     30  C   UNL d   1       7.101  -0.988  -0.347  0.00  0.00     0.025 A 
ATOM     31  N   UNL d   1       9.655   1.275  -1.161  0.00  0.00    -0.191 NA
ATOM     32  C   UNL d   1       5.822  -1.476  -0.062  0.00  0.00     0.031 A 
ENDBRANCH  23  25
ENDBRANCH  17  23
ENDBRANCH  13  15
ENDBRANCH   8  13
ENDBRANCH   1   5
TORSDOF 5
