REMARK  4 active torsions:
REMARK  status: ('A' for Active; 'I' for Inactive)
REMARK    1  A    between atoms: C_9  and  O_21 
REMARK    2  A    between atoms: C_18  and  O_19 
REMARK    3  A    between atoms: O_21  and  C_22 
REMARK    4  A    between atoms: C_22  and  C_24 
ROOT
ATOM      1  C   UNL d   1       6.028   1.837   0.354  0.00  0.00     0.018 C 
ATOM      2  C   UNL d   1       5.143   0.629   0.088  0.00  0.00    -0.014 C 
ATOM      3  C   UNL d   1       4.104   0.526   1.218  0.00  0.00     0.013 C 
ATOM      4  C   UNL d   1       2.991   1.562   1.052  0.00  0.00     0.010 C 
ATOM      5  C   UNL d   1       2.287   1.490  -0.317  0.00  0.00     0.023 C 
ATOM      6  C   UNL d   1       0.822   1.174  -0.152  0.00  0.00    -0.047 A 
ATOM      7  C   UNL d   1      -0.006   2.107   0.483  0.00  0.00     0.011 A 
ATOM      8  C   UNL d   1      -1.359   1.828   0.688  0.00  0.00     0.038 A 
ATOM      9  C   UNL d   1      -1.908   0.615   0.264  0.00  0.00     0.080 A 
ATOM     10  C   UNL d   1      -1.081  -0.320  -0.378  0.00  0.00     0.045 A 
ATOM     11  C   UNL d   1       0.277  -0.058  -0.579  0.00  0.00    -0.049 A 
ATOM     12  C   UNL d   1       1.089  -1.051  -1.358  0.00  0.00     0.039 C 
ATOM     13  C   UNL d   1       2.584  -0.886  -1.120  0.00  0.00     0.010 C 
ATOM     14  C   UNL d   1       2.987   0.575  -1.345  0.00  0.00    -0.001 C 
ATOM     15  C   UNL d   1       4.512   0.784  -1.306  0.00  0.00     0.001 C 
ATOM     16  C   UNL d   1       5.247  -0.159  -2.249  0.00  0.00     0.008 C 
ATOM     17  C   UNL d   1       6.414  -0.727  -1.464  0.00  0.00     0.033 C 
ATOM     18  C   UNL d   1       6.037  -0.610   0.000  0.00  0.00     0.126 C 
ENDROOT
BRANCH   9  19
ATOM     19  O   UNL d   1      -3.273   0.385   0.495  0.00  0.00    -0.275 OA
BRANCH  19  20
ATOM     20  C   UNL d   1      -3.994  -0.770   0.148  0.00  0.00     0.298 C 
ATOM     21  O   UNL d   1      -3.431  -1.743  -0.424  0.00  0.00    -0.259 OA
BRANCH  20  22
ATOM     22  C   UNL d   1      -5.431  -0.841   0.460  0.00  0.00     0.039 A 
ATOM     23  C   UNL d   1      -6.066   0.235   1.096  0.00  0.00     0.017 A 
ATOM     24  C   UNL d   1      -7.431   0.173   1.394  0.00  0.00     0.001 A 
ATOM     25  C   UNL d   1      -8.169  -0.965   1.059  0.00  0.00     0.000 A 
ATOM     26  C   UNL d   1      -7.543  -2.042   0.425  0.00  0.00     0.001 A 
ATOM     27  C   UNL d   1      -6.178  -1.980   0.127  0.00  0.00     0.017 A 
ENDBRANCH  20  22
ENDBRANCH  19  20
ENDBRANCH   9  19
BRANCH  18  28
ATOM     28  O   UNL d   1       5.350  -1.767   0.381  0.00  0.00    -0.395 OA
ATOM     29  HO  UNL d   1       5.904  -2.536   0.327  1.00  0.00     0.210 HD
ENDBRANCH  18  28
TORSDOF 4
