REMARK  2 active torsions:
REMARK  status: ('A' for Active; 'I' for Inactive)
REMARK    1  A    between atoms: C_12  and  O_13 
REMARK    2  A    between atoms: C_16  and  O_17 
ROOT
ATOM      1  C   UNL d   1      -3.851   0.280  -2.865  0.00  0.00     0.016 C 
ATOM      2  C   UNL d   1      -3.195   0.142  -1.497  0.00  0.00     0.051 C 
ATOM      3  C   UNL d   1      -1.840   0.786  -1.590  0.00  0.00     0.032 C 
ATOM      4  C   UNL d   1      -1.980   2.084  -0.807  0.00  0.00     0.131 C 
ATOM      5  C   UNL d   1      -0.875   2.094   0.246  0.00  0.00     0.038 C 
ATOM      6  C   UNL d   1       0.139   1.153  -0.360  0.00  0.00     0.001 C 
ATOM      7  C   UNL d   1       1.325   0.671   0.467  0.00  0.00    -0.001 C 
ATOM      8  C   UNL d   1       2.109   1.867   0.991  0.00  0.00     0.033 C 
ATOM      9  C   UNL d   1       3.432   1.460   1.576  0.00  0.00    -0.023 C 
ATOM     10  C   UNL d   1       4.080   0.336   1.230  0.00  0.00    -0.070 C 
ATOM     11  C   UNL d   1       5.438   0.115   1.844  0.00  0.00     0.066 C 
ATOM     12  C   UNL d   1       6.180  -1.082   1.253  0.00  0.00     0.124 C 
ATOM     13  C   UNL d   1       5.983  -1.171  -0.259  0.00  0.00     0.065 C 
ATOM     14  C   UNL d   1       4.510  -1.246  -0.692  0.00  0.00     0.133 C 
ATOM     15  C   UNL d   1       3.454  -0.726   0.324  0.00  0.00     0.009 C 
ATOM     16  C   UNL d   1       2.962  -1.861   1.228  0.00  0.00     0.023 C 
ATOM     17  C   UNL d   1       2.250  -0.146  -0.463  0.00  0.00     0.005 C 
ATOM     18  C   UNL d   1       1.491  -1.223  -1.281  0.00  0.00     0.007 C 
ATOM     19  C   UNL d   1       0.231  -0.672  -1.974  0.00  0.00     0.010 C 
ATOM     20  C   UNL d   1      -0.666   0.022  -0.955  0.00  0.00    -0.033 C 
ATOM     21  C   UNL d   1      -1.115  -0.984   0.118  0.00  0.00     0.016 C 
ATOM     22  O   UNL d   1      -3.253   2.169  -0.208  0.00  0.00    -0.349 OA
ATOM     23  C   UNL d   1      -3.923   0.939  -0.386  0.00  0.00     0.168 C 
ATOM     24  C   UNL d   1      -3.838   0.197   0.962  0.00  0.00     0.069 C 
ATOM     25  C   UNL d   1      -4.719  -1.048   0.983  0.00  0.00     0.011 C 
ATOM     26  C   UNL d   1      -6.127  -0.716   0.513  0.00  0.00     0.005 C 
ATOM     27  C   UNL d   1      -6.879   0.094   1.557  0.00  0.00     0.012 C 
ATOM     28  C   UNL d   1      -6.046   0.039  -0.810  0.00  0.00     0.175 C 
ATOM     29  O   UNL d   1      -5.283   1.227  -0.695  0.00  0.00    -0.354 OA
ENDROOT
BRANCH  14  30
ATOM     30  O   UNL d   1       4.212  -2.531  -1.154  0.00  0.00    -0.394 OA
ATOM     31  HO  UNL d   1       3.302  -2.577  -1.422  1.00  0.00     0.210 HD
ENDBRANCH  14  30
BRANCH  12  32
ATOM     32  O   UNL d   1       5.791  -2.268   1.877  0.00  0.00    -0.395 OA
ATOM     33  HO  UNL d   1       6.253  -3.013   1.509  1.00  0.00     0.210 HD
ENDBRANCH  12  32
TORSDOF 2
