REMARK  12 active torsions:
REMARK  status: ('A' for Active; 'I' for Inactive)
REMARK    1  A    between atoms: C_2  and  O_4 
REMARK    2  A    between atoms: O_4  and  C_5 
REMARK    3  A    between atoms: C_7  and  C_5 
REMARK    4  A    between atoms: C_7  and  N_9 
REMARK    5  A    between atoms: N_9  and  P_10 
REMARK    6  A    between atoms: P_10  and  O_12 
REMARK    7  A    between atoms: P_10  and  O_32 
REMARK    8  A    between atoms: O_12  and  C_13 
REMARK    9  A    between atoms: C_14  and  C_13 
REMARK   10  A    between atoms: C_16  and  N_17 
REMARK   11  A    between atoms: C_29  and  O_30 
REMARK   12  A    between atoms: O_32  and  C_33 
ROOT
ATOM      1  O   UNL d   1      -1.595  -0.672   0.190  0.00  0.00    -0.298 OA
ENDROOT
BRANCH   1   2
ATOM      2  P   UNL d   1      -2.163   0.140  -1.187  0.00  0.00     0.430 P 
ATOM      3  O   UNL d   1      -2.311  -0.838  -2.332  0.00  0.00    -0.238 OA
BRANCH   2   4
ATOM      4  N   UNL d   1      -3.722   0.867  -0.837  0.00  0.00    -0.123 NA
BRANCH   4   5
ATOM      5  C   UNL d   1      -4.586  -0.173  -0.299  0.00  0.00     0.182 C 
ATOM      6  C   UNL d   1      -5.423   0.393   0.831  0.00  0.00     0.039 C 
BRANCH   5   7
ATOM      7  C   UNL d   1      -5.468  -0.722  -1.372  0.00  0.00     0.278 C 
ATOM      8  O   UNL d   1      -6.213   0.049  -2.038  0.00  0.00    -0.263 OA
BRANCH   7   9
ATOM      9  O   UNL d   1      -5.459  -2.096  -1.619  0.00  0.00    -0.316 OA
BRANCH   9  10
ATOM     10  C   UNL d   1      -6.229  -2.690  -2.657  0.00  0.00     0.123 C 
ATOM     11  C   UNL d   1      -5.559  -2.460  -3.998  0.00  0.00     0.040 C 
ATOM     12  C   UNL d   1      -6.341  -4.179  -2.407  0.00  0.00     0.040 C 
ENDBRANCH   9  10
ENDBRANCH   7   9
ENDBRANCH   5   7
ENDBRANCH   4   5
ENDBRANCH   2   4
BRANCH   2  13
ATOM     13  O   UNL d   1      -1.055   1.379  -1.642  0.00  0.00    -0.259 OA
BRANCH  13  14
ATOM     14  C   UNL d   1      -0.698   2.439  -0.802  0.00  0.00     0.080 A 
ATOM     15  C   UNL d   1      -1.267   2.603   0.472  0.00  0.00     0.037 A 
ATOM     16  C   UNL d   1      -0.878   3.670   1.287  0.00  0.00     0.003 A 
ATOM     17  C   UNL d   1       0.080   4.581   0.834  0.00  0.00     0.000 A 
ATOM     18  C   UNL d   1       0.647   4.426  -0.433  0.00  0.00     0.003 A 
ATOM     19  C   UNL d   1       0.258   3.358  -1.248  0.00  0.00     0.037 A 
ENDBRANCH  13  14
ENDBRANCH   2  13
ENDBRANCH   1   2
BRANCH   1  20
ATOM     20  C   UNL d   1      -0.286  -1.054  -0.117  0.00  0.00     0.214 C 
BRANCH  20  21
ATOM     21  C   UNL d   1       0.541  -1.151   1.153  0.00  0.00     0.180 C 
ATOM     22  O   UNL d   1       1.802  -1.697   0.847  0.00  0.00    -0.353 OA
ATOM     23  C   UNL d   1       2.731  -0.967   1.608  0.00  0.00     0.274 C 
ATOM     24  C   UNL d   1       2.202   0.446   1.793  0.00  0.00     0.172 C 
ATOM     25  C   UNL d   1       2.569   1.381   0.649  0.00  0.00     0.059 C 
ATOM     26  F   UNL d   1       2.644   0.981   2.991  0.00  0.00    -0.236 F 
ATOM     27  C   UNL d   1       0.713   0.227   1.779  0.00  0.00     0.193 C 
BRANCH  23  28
ATOM     28  N   UNL d   1       4.079  -1.024   1.027  0.00  0.00    -0.279 N 
ATOM     29  C   UNL d   1       4.237  -1.072  -0.328  0.00  0.00     0.104 A 
ATOM     30  C   UNL d   1       5.510  -1.109  -0.893  0.00  0.00     0.092 A 
ATOM     31  C   UNL d   1       6.610  -1.095  -0.043  0.00  0.00     0.250 A 
ATOM     32  O   UNL d   1       7.774  -1.126  -0.519  0.00  0.00    -0.268 OA
ATOM     33  N   UNL d   1       6.427  -1.045   1.301  0.00  0.00    -0.275 N 
ATOM     34  C   UNL d   1       5.180  -1.010   1.841  0.00  0.00     0.331 A 
ATOM     35  HN  UNL d   1       7.240  -1.032   1.917  1.00  0.00     0.173 HD
ATOM     36  O   UNL d   1       5.051  -0.966   3.094  0.00  0.00    -0.246 OA
ENDBRANCH  23  28
BRANCH  27  37
ATOM     37  O   UNL d   1       0.195   0.205   3.076  0.00  0.00    -0.389 OA
ATOM     38  HO  UNL d   1      -0.745   0.066   3.068  1.00  0.00     0.210 HD
ENDBRANCH  27  37
ENDBRANCH  20  21
ENDBRANCH   1  20
TORSDOF 12
