REMARK  6 active torsions:
REMARK  status: ('A' for Active; 'I' for Inactive)
REMARK    1  A    between atoms: C_16  and  O_33 
REMARK    2  A    between atoms: C_19  and  C_20 
REMARK    3  A    between atoms: C_19  and  O_24 
REMARK    4  A    between atoms: C_20  and  C_22 
REMARK    5  A    between atoms: O_24  and  C_25 
REMARK    6  A    between atoms: C_25  and  C_27 
ROOT
ATOM      1  C   UNL d   1       2.601  -0.649  -3.190  0.00  0.00     0.013 C 
ATOM      2  C   UNL d   1       1.419  -1.050  -2.316  0.00  0.00     0.026 C 
ATOM      3  C   UNL d   1       0.159  -0.417  -2.886  0.00  0.00     0.013 C 
ATOM      4  C   UNL d   1      -0.292   0.686  -1.933  0.00  0.00     0.004 C 
ATOM      5  C   UNL d   1      -1.674   0.366  -1.367  0.00  0.00     0.018 C 
ATOM      6  C   UNL d   1      -2.765  -0.001  -2.363  0.00  0.00     0.011 C 
ATOM      7  C   UNL d   1      -3.791  -0.862  -1.623  0.00  0.00     0.036 C 
ATOM      8  C   UNL d   1      -4.125  -0.293  -0.266  0.00  0.00    -0.062 C 
ATOM      9  C   UNL d   1      -4.847  -1.042   0.571  0.00  0.00     0.058 C 
ATOM     10  C   UNL d   1      -5.192  -0.552   1.908  0.00  0.00     0.172 C 
ATOM     11  O   UNL d   1      -5.906  -1.250   2.673  0.00  0.00    -0.289 OA
ATOM     12  C   UNL d   1      -4.676   0.741   2.360  0.00  0.00     0.052 C 
ATOM     13  C   UNL d   1      -3.964   1.507   1.532  0.00  0.00    -0.007 C 
ATOM     14  C   UNL d   1      -3.679   1.131   0.087  0.00  0.00     0.022 C 
ATOM     15  C   UNL d   1      -2.142   1.340  -0.267  0.00  0.00     0.081 C 
ATOM     16  C   UNL d   1      -1.204   1.048   0.920  0.00  0.00     0.144 C 
ATOM     17  C   UNL d   1       0.287   1.224   0.575  0.00  0.00     0.046 C 
ATOM     18  C   UNL d   1       0.786   0.785  -0.832  0.00  0.00     0.002 C 
ATOM     19  C   UNL d   1       1.542  -0.583  -0.852  0.00  0.00     0.143 C 
ATOM     20  C   UNL d   1       1.724   1.900  -1.286  0.00  0.00     0.019 C 
ATOM     21 CL   UNL d   1      -1.842   3.055  -0.767  0.00  0.00    -0.115 Cl
ATOM     22  C   UNL d   1      -4.574   2.044  -0.751  0.00  0.00     0.027 C 
ENDROOT
BRANCH  19  23
ATOM     23  C   UNL d   1       0.882  -1.668  -0.001  0.00  0.00     0.176 C 
ATOM     24  O   UNL d   1      -0.258  -2.032  -0.249  0.00  0.00    -0.293 OA
BRANCH  23  25
ATOM     25  C   UNL d   1       1.614  -2.355   1.109  0.00  0.00     0.196 C 
ATOM     26 CL   UNL d   1       1.920  -4.056   0.683  0.00  0.00    -0.122 Cl
ENDBRANCH  23  25
ENDBRANCH  19  23
BRANCH  19  27
ATOM     27  O   UNL d   1       2.941  -0.453  -0.518  0.00  0.00    -0.295 OA
BRANCH  27  28
ATOM     28  C   UNL d   1       3.481   0.034   0.682  0.00  0.00     0.318 C 
ATOM     29  O   UNL d   1       2.741   0.348   1.653  0.00  0.00    -0.257 OA
BRANCH  28  30
ATOM     30  C   UNL d   1       4.935   0.162   0.805  0.00  0.00     0.149 A 
ATOM     31  O   UNL d   1       5.774  -0.147  -0.150  0.00  0.00    -0.317 OA
ATOM     32  C   UNL d   1       6.996   0.079   0.268  0.00  0.00     0.143 A 
ATOM     33  C   UNL d   1       6.948   0.561   1.566  0.00  0.00     0.027 A 
ATOM     34  C   UNL d   1       5.611   0.616   1.918  0.00  0.00     0.045 A 
ENDBRANCH  28  30
ENDBRANCH  27  28
ENDBRANCH  19  27
BRANCH  16  35
ATOM     35  O   UNL d   1      -1.431  -0.217   1.465  0.00  0.00    -0.394 OA
ATOM     36  HO  UNL d   1      -0.853  -0.397   2.196  1.00  0.00     0.210 HD
ENDBRANCH  16  35
TORSDOF 6
