REMARK  9 active torsions:
REMARK  status: ('A' for Active; 'I' for Inactive)
REMARK    1  A    between atoms: C_2  and  C_3 
REMARK    2  A    between atoms: C_3  and  C_4 
REMARK    3  A    between atoms: C_4  and  C_5 
REMARK    4  A    between atoms: C_5  and  C_6 
REMARK    5  A    between atoms: C_6  and  C_7 
REMARK    6  A    between atoms: C_7  and  C_8 
REMARK    7  A    between atoms: C_8  and  N_9 
REMARK       I    between atoms: N_9  and  C_11 
REMARK       I    between atoms: C_11  and  N_15 
REMARK       I    between atoms: N_15  and  C_17 
REMARK       I    between atoms: C_17  and  N_21 
REMARK    8  A    between atoms: N_21  and  C_23 
REMARK    9  A    between atoms: C_23  and  C_24 
ROOT
ATOM      1  N   UNL d   1       2.421  -1.183   0.510  0.00  0.00    -0.226 N 
ATOM      2  HN  UNL d   1       2.363  -1.026   1.516  1.00  0.00     0.177 HD
ATOM      3  C   UNL d   1       1.228  -1.540  -0.193  0.00  0.00     0.686 C 
ATOM      4  N   UNL d   1       1.269  -1.786  -1.463  0.00  0.00    -0.234 N 
ATOM      5  HN1 UNL d   1       0.418  -2.041  -1.964  1.00  0.00     0.174 HD
ATOM      6  HN2 UNL d   1       2.146  -1.725  -1.981  1.00  0.00     0.174 HD
ATOM      7  N   UNL d   1      -0.004  -1.627   0.536  0.00  0.00    -0.024 N 
ATOM      8  HN  UNL d   1       0.041  -1.422   1.534  1.00  0.00     0.203 HD
ATOM      9  C   UNL d   1      -1.292  -1.971   0.009  0.00  0.00     0.686 C 
ATOM     10  N   UNL d   1      -1.441  -2.272  -1.241  0.00  0.00    -0.234 N 
ATOM     11  HN1 UNL d   1      -2.358  -2.517  -1.616  1.00  0.00     0.174 HD
ATOM     12  HN2 UNL d   1      -0.641  -2.250  -1.873  1.00  0.00     0.174 HD
ATOM     13  N   UNL d   1      -2.414  -2.001   0.896  0.00  0.00    -0.222 N 
ATOM     14  HN  UNL d   1      -2.253  -1.814   1.886  1.00  0.00     0.178 HD
ENDROOT
BRANCH   1  15
ATOM     15  C   UNL d   1       3.717  -1.033  -0.140  0.00  0.00     0.138 C 
BRANCH  15  16
ATOM     16  C   UNL d   1       3.763   0.253  -0.956  0.00  0.00     0.020 C 
BRANCH  16  17
ATOM     17  C   UNL d   1       3.751   1.487  -0.063  0.00  0.00     0.002 C 
BRANCH  17  18
ATOM     18  C   UNL d   1       5.130   1.764   0.514  0.00  0.00     0.000 C 
BRANCH  18  19
ATOM     19  C   UNL d   1       5.351   0.954   1.781  0.00  0.00     0.000 C 
BRANCH  19  20
ATOM     20  C   UNL d   1       6.748   1.193   2.324  0.00  0.00    -0.000 C 
BRANCH  20  21
ATOM     21  C   UNL d   1       7.774   0.447   1.491  0.00  0.00    -0.005 C 
ATOM     22  C   UNL d   1       9.158   0.703   2.048  0.00  0.00     0.005 C 
ENDBRANCH  20  21
ENDBRANCH  19  20
ENDBRANCH  18  19
ENDBRANCH  17  18
ENDBRANCH  16  17
ENDBRANCH  15  16
ENDBRANCH   1  15
BRANCH  13  23
ATOM     23  C   UNL d   1      -3.775  -2.284   0.459  0.00  0.00     0.176 C 
BRANCH  23  24
ATOM     24  C   UNL d   1      -4.365  -1.092  -0.215  0.00  0.00    -0.038 A 
ATOM     25  C   UNL d   1      -4.493  -1.067  -1.606  0.00  0.00     0.010 A 
ATOM     26  C   UNL d   1      -5.035   0.054  -2.240  0.00  0.00     0.026 A 
ATOM     27  C   UNL d   1      -5.449   1.157  -1.487  0.00  0.00     0.055 A 
ATOM     28 CL   UNL d   1      -6.123   2.545  -2.325  0.00  0.00    -0.083 Cl
ATOM     29  C   UNL d   1      -5.320   1.135  -0.087  0.00  0.00     0.056 A 
ATOM     30 CL   UNL d   1      -5.823   2.494   0.904  0.00  0.00    -0.083 Cl
ATOM     31  C   UNL d   1      -4.777   0.010   0.542  0.00  0.00     0.034 A 
ENDBRANCH  23  24
ENDBRANCH  13  23
TORSDOF 9
