REMARK  9 active torsions:
REMARK  status: ('A' for Active; 'I' for Inactive)
REMARK    1  A    between atoms: C_3  and  O_40 
REMARK    2  A    between atoms: C_4  and  N_42 
REMARK    3  A    between atoms: C_6  and  O_8 
REMARK    4  A    between atoms: C_9  and  O_8 
REMARK    5  A    between atoms: C_11  and  C_35 
REMARK    6  A    between atoms: C_11  and  O_38 
REMARK    7  A    between atoms: C_15  and  O_33 
REMARK    8  A    between atoms: C_18  and  O_19 
REMARK    9  A    between atoms: C_27  and  O_31 
ROOT
ATOM      1  C   UNL d   1      -1.809  -0.230   0.959  0.00  0.00     0.164 C 
ATOM      2  C   UNL d   1      -2.144  -0.722   2.371  0.00  0.00     0.083 C 
ATOM      3  C   UNL d   1      -1.833  -2.213   2.609  0.00  0.00     0.124 C 
ATOM      4  C   UNL d   1      -0.943  -2.841   1.521  0.00  0.00     0.088 C 
ATOM      5  C   UNL d   1       0.054  -1.871   0.950  0.00  0.00    -0.009 A 
ATOM      6  C   UNL d   1      -0.366  -0.574   0.631  0.00  0.00     0.014 A 
ATOM      7  C   UNL d   1       0.533   0.309  -0.005  0.00  0.00     0.090 A 
ATOM      8  C   UNL d   1       1.865  -0.096  -0.275  0.00  0.00     0.066 A 
ATOM      9  C   UNL d   1       2.281  -1.404   0.074  0.00  0.00     0.066 A 
ATOM     10  C   UNL d   1       1.359  -2.289   0.675  0.00  0.00     0.088 A 
ATOM     11  C   UNL d   1       3.679  -1.831  -0.210  0.00  0.00     0.197 A 
ATOM     12  O   UNL d   1       4.074  -2.987   0.105  0.00  0.00    -0.286 OA
ATOM     13  C   UNL d   1       4.625  -0.908  -0.865  0.00  0.00     0.032 A 
ATOM     14  C   UNL d   1       5.932  -1.337  -1.134  0.00  0.00     0.017 A 
ATOM     15  C   UNL d   1       6.846  -0.486  -1.751  0.00  0.00     0.004 A 
ATOM     16  C   UNL d   1       6.462   0.804  -2.107  0.00  0.00     0.037 A 
ATOM     17  C   UNL d   1       5.164   1.252  -1.848  0.00  0.00     0.080 A 
ATOM     18  C   UNL d   1       4.226   0.397  -1.220  0.00  0.00     0.062 A 
ATOM     19  C   UNL d   1       2.837   0.836  -0.925  0.00  0.00     0.200 A 
ATOM     20  O   UNL d   1       2.481   2.007  -1.224  0.00  0.00    -0.286 OA
ENDROOT
BRANCH   1  21
ATOM     21  O   UNL d   1      -2.079   1.140   0.882  0.00  0.00    -0.351 OA
BRANCH  21  22
ATOM     22  C   UNL d   1      -3.233   1.238   0.097  0.00  0.00     0.263 C 
ATOM     23  C   UNL d   1      -2.987   2.173  -1.101  0.00  0.00     0.096 C 
ATOM     24  C   UNL d   1      -4.286   2.791  -1.601  0.00  0.00     0.219 C 
ATOM     25  C   UNL d   1      -5.060   3.455  -0.462  0.00  0.00     0.177 C 
ATOM     26  C   UNL d   1      -4.649   2.938   0.930  0.00  0.00     0.151 C 
ATOM     27  C   UNL d   1      -3.546   3.752   1.609  0.00  0.00     0.042 C 
ATOM     28  O   UNL d   1      -4.361   1.552   0.911  0.00  0.00    -0.354 OA
BRANCH  24  29
ATOM     29  N   UNL d   1      -5.113   1.774  -2.228  0.00  0.00    -0.072 N 
ATOM     30  HN3 UNL d   1      -5.462   1.093  -1.554  1.00  0.00     0.274 HD
ATOM     31  HN2 UNL d   1      -6.010   2.147  -2.540  1.00  0.00     0.274 HD
ATOM     32  HN1 UNL d   1      -4.597   1.331  -2.988  1.00  0.00     0.274 HD
ENDBRANCH  24  29
BRANCH  25  33
ATOM     33  O   UNL d   1      -4.954   4.845  -0.547  0.00  0.00    -0.391 OA
ATOM     34  HO  UNL d   1      -5.207   5.164  -1.405  1.00  0.00     0.210 HD
ENDBRANCH  25  33
ENDBRANCH  21  22
ENDBRANCH   1  21
BRANCH   7  35
ATOM     35  O   UNL d   1       0.106   1.581  -0.375  0.00  0.00    -0.359 OA
ATOM     36  HO  UNL d   1       0.711   2.175  -0.803  1.00  0.00     0.217 HD
ENDBRANCH   7  35
BRANCH   3  37
ATOM     37  C   UNL d   1      -3.133  -2.977   2.663  0.00  0.00     0.157 C 
ATOM     38  O   UNL d   1      -3.869  -2.998   1.687  0.00  0.00    -0.295 OA
ATOM     39  C   UNL d   1      -3.552  -3.717   3.893  0.00  0.00     0.094 C 
ENDBRANCH   3  37
BRANCH   3  40
ATOM     40  O   UNL d   1      -1.164  -2.320   3.831  0.00  0.00    -0.382 OA
ATOM     41  HO  UNL d   1      -0.973  -3.239   3.977  1.00  0.00     0.211 HD
ENDBRANCH   3  40
BRANCH  10  42
ATOM     42  O   UNL d   1       1.728  -3.592   1.002  0.00  0.00    -0.359 OA
ATOM     43  HO  UNL d   1       2.615  -3.876   0.816  1.00  0.00     0.217 HD
ENDBRANCH  10  42
BRANCH  17  44
ATOM     44  O   UNL d   1       4.829   2.548  -2.223  0.00  0.00    -0.360 OA
ATOM     45  HO  UNL d   1       3.946   2.853  -2.047  1.00  0.00     0.217 HD
ENDBRANCH  17  44
TORSDOF 9
