REMARK  0 active torsions:
REMARK  status: ('A' for Active; 'I' for Inactive)
ROOT
ATOM      1  C   UNL d   1      -2.800  -0.264   1.598  0.00  0.00     0.024 C 
ATOM      2  C   UNL d   1      -2.681   0.205   0.149  0.00  0.00     0.027 C 
ATOM      3  C   UNL d   1      -1.903   1.515   0.062  0.00  0.00     0.096 C 
ATOM      4  C   UNL d   1      -0.409   1.272   0.169  0.00  0.00     0.133 C 
ATOM      5  O   UNL d   1       0.343   2.209  -0.047  0.00  0.00    -0.297 OA
ATOM      6  C   UNL d   1       0.138  -0.125   0.523  0.00  0.00     0.072 C 
ATOM      7  C   UNL d   1      -0.633  -1.277  -0.217  0.00  0.00     0.003 C 
ATOM      8  C   UNL d   1       0.173  -1.936  -1.351  0.00  0.00     0.010 C 
ATOM      9  C   UNL d   1       1.157  -0.978  -2.027  0.00  0.00     0.035 C 
ATOM     10  C   UNL d   1       2.081  -0.350  -1.023  0.00  0.00    -0.067 C 
ATOM     11  C   UNL d   1       3.239   0.158  -1.455  0.00  0.00     0.053 C 
ATOM     12  C   UNL d   1       4.186   0.801  -0.533  0.00  0.00     0.149 C 
ATOM     13  O   UNL d   1       5.255   1.291  -0.977  0.00  0.00    -0.293 OA
ATOM     14  C   UNL d   1       3.911   0.827   0.938  0.00  0.00     0.084 C 
ATOM     15  C   UNL d   1       2.405   0.834   1.200  0.00  0.00     0.022 C 
ATOM     16  C   UNL d   1       1.679  -0.297   0.444  0.00  0.00    -0.009 C 
ATOM     17  C   UNL d   1       2.065  -1.611   1.118  0.00  0.00     0.021 C 
ATOM     18  C   UNL d   1      -1.986  -0.800  -0.747  0.00  0.00     0.007 C 
ATOM     19  C   UNL d   1      -3.028  -1.816  -1.179  0.00  0.00     0.013 C 
ATOM     20  C   UNL d   1      -4.303  -0.981  -1.309  0.00  0.00     0.079 C 
ATOM     21  C   UNL d   1      -4.033   0.221  -0.464  0.00  0.00     0.136 C 
ATOM     22  O   UNL d   1      -4.858   1.100  -0.270  0.00  0.00    -0.297 OA
ENDROOT
TORSDOF 0
