REMARK  2 active torsions:
REMARK  status: ('A' for Active; 'I' for Inactive)
REMARK    1  A    between atoms: C_9  and  N_11 
REMARK       I    between atoms: N_11  and  C_13 
REMARK    2  A    between atoms: C_13  and  C_15 
ROOT
ATOM      1  N   UNL d   1       0.236   0.473   0.094  0.00  0.00    -0.351 N 
ATOM      2  HN  UNL d   1      -0.143   0.176  -0.805  1.00  0.00     0.163 HD
ATOM      3  C   UNL d   1      -0.665   0.656   1.190  0.00  0.00     0.270 C 
ATOM      4  O   UNL d   1      -0.233   1.055   2.305  0.00  0.00    -0.266 OA
ENDROOT
BRANCH   3   5
ATOM      5  C   UNL d   1      -2.099   0.384   1.022  0.00  0.00     0.128 A 
ATOM      6  N   UNL d   1      -3.018   0.537   2.008  0.00  0.00    -0.293 N 
ATOM      7  N   UNL d   1      -4.206   0.205   1.515  0.00  0.00    -0.295 N 
ATOM      8  HN  UNL d   1      -2.831   0.851   2.960  1.00  0.00     0.187 HD
ATOM      9  C   UNL d   1      -5.442   0.241   2.277  0.00  0.00     0.178 C 
ATOM     10  C   UNL d   1      -4.063  -0.159   0.229  0.00  0.00     0.063 A 
ATOM     11  C   UNL d   1      -5.038  -0.581  -0.673  0.00  0.00     0.032 A 
ATOM     12  C   UNL d   1      -2.744  -0.059  -0.120  0.00  0.00     0.026 A 
ATOM     13  C   UNL d   1      -4.615  -0.906  -1.975  0.00  0.00     0.002 A 
ATOM     14  C   UNL d   1      -3.252  -0.803  -2.336  0.00  0.00     0.001 A 
ATOM     15  C   UNL d   1      -2.293  -0.373  -1.401  0.00  0.00     0.016 A 
ENDBRANCH   3   5
BRANCH   1  16
ATOM     16  C   UNL d   1       1.669   0.694   0.207  0.00  0.00     0.088 C 
ATOM     17  C   UNL d   1       2.319  -0.435   1.028  0.00  0.00     0.061 C 
ATOM     18  C   UNL d   1       3.844  -0.497   0.856  0.00  0.00     0.225 C 
ATOM     19  C   UNL d   1       4.175  -1.776   0.058  0.00  0.00     0.036 C 
ATOM     20  N   UNL d   1       4.317   0.741   0.209  0.00  0.00     0.093 N 
ATOM     21  C   UNL d   1       4.941  -1.506  -1.234  0.00  0.00     0.004 C 
ATOM     22  C   UNL d   1       4.292  -0.384  -2.044  0.00  0.00     0.036 C 
ATOM     23  C   UNL d   1       3.823   0.803  -1.179  0.00  0.00     0.225 C 
ATOM     24  C   UNL d   1       2.284   0.822  -1.194  0.00  0.00     0.061 C 
ATOM     25  C   UNL d   1       5.769   0.870   0.282  0.00  0.00     0.310 C 
ENDBRANCH   1  16
TORSDOF 2
