REMARK  19 active torsions:
REMARK  status: ('A' for Active; 'I' for Inactive)
REMARK    1  A    between atoms: C_4  and  C_7 
REMARK    2  A    between atoms: C_7  and  C_8 
REMARK    3  A    between atoms: C_8  and  C_9 
REMARK    4  A    between atoms: C_9  and  C_10 
REMARK    5  A    between atoms: C_10  and  O_11 
REMARK    6  A    between atoms: O_11  and  C_12 
REMARK    7  A    between atoms: C_12  and  C_13 
REMARK    8  A    between atoms: C_13  and  C_14 
REMARK    9  A    between atoms: C_14  and  C_15 
REMARK   10  A    between atoms: C_15  and  C_16 
REMARK   11  A    between atoms: C_16  and  C_17 
REMARK   12  A    between atoms: C_17  and  N_33 
REMARK   13  A    between atoms: C_18  and  C_19 
REMARK   14  A    between atoms: C_18  and  N_33 
REMARK   15  A    between atoms: C_19  and  C_20 
REMARK   16  A    between atoms: C_19  and  O_31 
REMARK   17  A    between atoms: C_23  and  O_29 
REMARK   18  A    between atoms: C_24  and  C_26 
REMARK   19  A    between atoms: C_26  and  O_27 
ROOT
ATOM      1  N   UNL d   1      -0.361  -1.214   2.470  0.00  0.00    -0.072 N 
ATOM      2  HN1 UNL d   1       0.515  -0.821   2.813  1.00  0.00     0.277 HD
ATOM      3  HN2 UNL d   1      -0.981  -0.497   2.846  1.00  0.00     0.277 HD
ENDROOT
BRANCH   1   4
ATOM      4  C   UNL d   1      -0.637  -2.542   2.994  0.00  0.00     0.232 C 
BRANCH   4   5
ATOM      5  C   UNL d   1       0.643  -3.184   3.518  0.00  0.00     0.027 C 
BRANCH   5   6
ATOM      6  C   UNL d   1       1.608  -3.499   2.386  0.00  0.00     0.002 C 
BRANCH   6   7
ATOM      7  C   UNL d   1       1.107  -4.675   1.560  0.00  0.00     0.002 C 
BRANCH   7   8
ATOM      8  C   UNL d   1       1.856  -4.736   0.241  0.00  0.00     0.026 C 
BRANCH   8   9
ATOM      9  C   UNL d   1       1.349  -3.645  -0.688  0.00  0.00     0.167 C 
BRANCH   9  10
ATOM     10  O   UNL d   1       2.205  -3.503  -1.779  0.00  0.00    -0.391 OA
BRANCH  10  11
ATOM     11  C   UNL d   1       2.807  -2.256  -1.595  0.00  0.00     0.167 C 
BRANCH  11  12
ATOM     12  C   UNL d   1       2.505  -1.337  -2.767  0.00  0.00     0.027 C 
BRANCH  12  13
ATOM     13  C   UNL d   1       1.044  -0.922  -2.745  0.00  0.00     0.007 C 
BRANCH  13  14
ATOM     14  C   UNL d   1       0.803   0.211  -3.727  0.00  0.00     0.038 C 
BRANCH  14  15
ATOM     15  C   UNL d   1       1.091   1.527  -3.088  0.00  0.00    -0.058 A 
ATOM     16  C   UNL d   1       0.057   2.245  -2.478  0.00  0.00     0.007 A 
ATOM     17  C   UNL d   1       0.325   3.466  -1.852  0.00  0.00     0.001 A 
ATOM     18  C   UNL d   1       1.628   3.971  -1.836  0.00  0.00     0.000 A 
ATOM     19  C   UNL d   1       2.663   3.257  -2.448  0.00  0.00     0.001 A 
ATOM     20  C   UNL d   1       2.395   2.036  -3.075  0.00  0.00     0.007 A 
ENDBRANCH  14  15
ENDBRANCH  13  14
ENDBRANCH  12  13
ENDBRANCH  11  12
ENDBRANCH  10  11
ENDBRANCH   9  10
ENDBRANCH   8   9
ENDBRANCH   7   8
ENDBRANCH   6   7
ENDBRANCH   5   6
ENDBRANCH   4   5
ENDBRANCH   1   4
BRANCH   1  21
ATOM     21  C   UNL d   1      -0.415  -1.314   1.018  0.00  0.00     0.268 C 
BRANCH  21  22
ATOM     22  C   UNL d   1      -0.120   0.028   0.361  0.00  0.00     0.176 C 
BRANCH  22  23
ATOM     23  C   UNL d   1      -1.241   1.001   0.565  0.00  0.00    -0.027 A 
ATOM     24  C   UNL d   1      -1.288   1.829   1.697  0.00  0.00     0.022 A 
ATOM     25  C   UNL d   1      -2.342   2.733   1.867  0.00  0.00    -0.001 A 
ATOM     26  C   UNL d   1      -3.368   2.796   0.909  0.00  0.00     0.074 A 
ATOM     27  C   UNL d   1      -3.333   1.954  -0.206  0.00  0.00     0.038 A 
ATOM     28  C   UNL d   1      -2.275   1.057  -0.376  0.00  0.00     0.012 A 
BRANCH  25  29
ATOM     29  C   UNL d   1      -2.378   3.589   3.087  0.00  0.00     0.205 C 
BRANCH  29  30
ATOM     30  O   UNL d   1      -3.006   2.901   4.125  0.00  0.00    -0.396 OA
ATOM     31  HO  UNL d   1      -3.029   3.446   4.902  1.00  0.00     0.209 HD
ENDBRANCH  29  30
ENDBRANCH  25  29
BRANCH  26  32
ATOM     32  O   UNL d   1      -4.421   3.691   1.058  0.00  0.00    -0.360 OA
ATOM     33  HO  UNL d   1      -4.445   4.263   1.816  1.00  0.00     0.217 HD
ENDBRANCH  26  32
ENDBRANCH  22  23
BRANCH  22  34
ATOM     34  O   UNL d   1       1.100   0.551   0.804  0.00  0.00    -0.389 OA
ATOM     35  HO  UNL d   1       1.284   1.388   0.395  1.00  0.00     0.210 HD
ENDBRANCH  22  34
ENDBRANCH  21  22
ENDBRANCH   1  21
TORSDOF 19
