REMARK  7 active torsions:
REMARK  status: ('A' for Active; 'I' for Inactive)
REMARK    1  A    between atoms: C_5  and  O_7 
REMARK    2  A    between atoms: O_7  and  C_8 
REMARK    3  A    between atoms: C_8  and  C_10 
REMARK    4  A    between atoms: C_10  and  C_11 
REMARK    5  A    between atoms: C_11  and  C_12 
REMARK    6  A    between atoms: C_11  and  C_18 
REMARK    7  A    between atoms: C_11  and  O_23 
ROOT
ATOM      1  C   UNL d   1      -1.447   0.373   0.401  0.00  0.00     0.097 C 
ENDROOT
BRANCH   1   2
ATOM      2  C   UNL d   1      -0.668  -0.606   1.298  0.00  0.00     0.154 C 
BRANCH   2   3
ATOM      3  C   UNL d   1       0.634  -1.037   0.701  0.00  0.00     0.262 C 
ATOM      4  O   UNL d   1       0.710  -2.147   0.109  0.00  0.00    -0.265 OA
BRANCH   3   5
ATOM      5  O   UNL d   1       1.744  -0.194   0.787  0.00  0.00    -0.314 OA
BRANCH   5   6
ATOM      6  C   UNL d   1       3.008  -0.542   0.238  0.00  0.00     0.159 C 
ATOM      7  C   UNL d   1       3.725  -1.516   1.139  0.00  0.00     0.062 C 
ATOM      8  C   UNL d   1       5.184  -1.128   1.035  0.00  0.00     0.239 C 
ATOM      9  N   UNL d   1       5.245   0.256   0.584  0.00  0.00    -0.072 N 
ATOM     10  C   UNL d   1       5.734   1.102   1.659  0.00  0.00     0.272 C 
ATOM     11  C   UNL d   1       3.904   0.677   0.200  0.00  0.00     0.268 C 
ATOM     12  C   UNL d   1       6.138   0.359  -0.557  0.00  0.00     0.272 C 
ENDBRANCH   5   6
ENDBRANCH   3   5
ENDBRANCH   2   3
ENDBRANCH   1   2
BRANCH   1  13
ATOM     13  C   UNL d   1      -1.839  -0.277  -0.920  0.00  0.00    -0.023 A 
ATOM     14  C   UNL d   1      -1.768   0.450  -2.120  0.00  0.00     0.010 A 
ATOM     15  C   UNL d   1      -2.162  -0.130  -3.329  0.00  0.00     0.001 A 
ATOM     16  C   UNL d   1      -2.641  -1.442  -3.352  0.00  0.00     0.000 A 
ATOM     17  C   UNL d   1      -2.730  -2.173  -2.165  0.00  0.00     0.001 A 
ATOM     18  C   UNL d   1      -2.336  -1.593  -0.956  0.00  0.00     0.010 A 
ENDBRANCH   1  13
BRANCH   1  19
ATOM     19  C   UNL d   1      -2.689   0.864   1.176  0.00  0.00     0.025 C 
ATOM     20  C   UNL d   1      -3.491   1.909   0.416  0.00  0.00     0.008 C 
ATOM     21  C   UNL d   1      -4.927   1.688   0.828  0.00  0.00     0.001 C 
ATOM     22  C   UNL d   1      -5.038   0.205   1.105  0.00  0.00     0.001 C 
ATOM     23  C   UNL d   1      -3.664  -0.244   1.564  0.00  0.00     0.008 C 
ENDBRANCH   1  19
BRANCH   1  24
ATOM     24  O   UNL d   1      -0.626   1.483   0.160  0.00  0.00    -0.384 OA
ATOM     25  HO  UNL d   1      -1.107   2.087  -0.394  1.00  0.00     0.211 HD
ENDBRANCH   1  24
TORSDOF 7
