REMARK  4 active torsions:
REMARK  status: ('A' for Active; 'I' for Inactive)
REMARK    1  A    between atoms: C_2  and  C_3 
REMARK    2  A    between atoms: C_3  and  N_23 
REMARK    3  A    between atoms: C_5  and  C_20 
REMARK    4  A    between atoms: C_20  and  S_21 
ROOT
ATOM      1  C   UNL d   1       2.697  -0.790   0.447  0.00  0.00     0.278 C 
ATOM      2  C   UNL d   1       2.381   0.454   1.296  0.00  0.00     0.024 C 
ATOM      3  C   UNL d   1       0.946   0.423   1.835  0.00  0.00     0.018 C 
ATOM      4  C   UNL d   1      -0.044  -0.292   0.907  0.00  0.00     0.053 C 
ATOM      5  C   UNL d   1       0.503  -0.283  -0.555  0.00  0.00     0.235 C 
ATOM      6  C   UNL d   1      -0.515  -0.626  -1.680  0.00  0.00     0.077 C 
ATOM      7  C   UNL d   1      -1.827   0.027  -1.387  0.00  0.00    -0.028 A 
ATOM      8  C   UNL d   1      -2.941   0.253  -2.191  0.00  0.00     0.096 A 
ATOM      9  N   UNL d   1      -3.952   0.778  -1.438  0.00  0.00    -0.365 N 
ATOM     10  HN  UNL d   1      -4.881   1.055  -1.756  1.00  0.00     0.165 HD
ATOM     11  C   UNL d   1      -3.460   0.853  -0.184  0.00  0.00     0.043 A 
ATOM     12  C   UNL d   1      -2.187   0.398  -0.141  0.00  0.00     0.005 A 
ATOM     13  C   UNL d   1      -1.425   0.319   1.007  0.00  0.00    -0.039 A 
ATOM     14  C   UNL d   1      -2.046   0.721   2.208  0.00  0.00     0.008 A 
ATOM     15  C   UNL d   1      -3.377   1.210   2.187  0.00  0.00     0.003 A 
ATOM     16  C   UNL d   1      -4.106   1.280   0.976  0.00  0.00     0.030 A 
ATOM     17  N   UNL d   1       1.776  -1.022  -0.684  0.00  0.00     0.094 N 
ENDROOT
BRANCH   2  18
ATOM     18  C   UNL d   1       2.630   1.741   0.520  0.00  0.00     0.079 C 
BRANCH  18  19
ATOM     19  S   UNL d   1       4.412   2.023   0.289  0.00  0.00    -0.173 SA
ATOM     20  C   UNL d   1       4.605   2.726   1.952  0.00  0.00     0.089 C 
ENDBRANCH  18  19
ENDBRANCH   2  18
BRANCH  17  21
ATOM     21  C   UNL d   1       1.510  -2.457  -0.697  0.00  0.00     0.272 C 
BRANCH  21  22
ATOM     22  C   UNL d   1       2.353  -3.125  -1.765  0.00  0.00     0.026 C 
ATOM     23  C   UNL d   1       2.066  -4.611  -1.775  0.00  0.00     0.007 C 
ENDBRANCH  21  22
ENDBRANCH  17  21
TORSDOF 4
