REMARK  Name = fda_5931
REMARK  0 active torsions:
REMARK  status: ('A' for Active; 'I' for Inactive)
REMARK                            x       y       z     vdW  Elec       q    Type
REMARK                         _______ _______ _______ _____ _____    ______ ____
ROOT
ATOM      1 CL   UNL A   1       5.154  -2.279   0.296  0.00  0.00    -0.082 Cl
ATOM      2  C   UNL A   1       3.530  -1.630   0.219  0.00  0.00    +0.057 A 
ATOM      3  C   UNL A   1       3.200  -0.690  -0.761  0.00  0.00    +0.007 A 
ATOM      4  C   UNL A   1       1.902  -0.174  -0.826  0.00  0.00    -0.021 A 
ATOM      5  C   UNL A   1       0.932  -0.585   0.098  0.00  0.00    -0.003 A 
ATOM      6  C   UNL A   1       1.272  -1.525   1.082  0.00  0.00    +0.001 A 
ATOM      7  C   UNL A   1       2.567  -2.046   1.142  0.00  0.00    +0.011 A 
ATOM      8  C   UNL A   1      -0.446  -0.045   0.021  0.00  0.00    +0.009 C 
ATOM      9  C   UNL A   1      -1.488  -0.883  -0.211  0.00  0.00    -0.040 C 
ATOM     10  C   UNL A   1      -1.276  -2.350  -0.474  0.00  0.00    +0.041 C 
ATOM     11  C   UNL A   1      -2.389  -3.158   0.190  0.00  0.00    +0.093 C 
ATOM     12  N   UNL A   1      -3.695  -2.684  -0.263  0.00  0.00    -0.217 NA
ATOM     13  C   UNL A   1      -3.886  -1.322   0.233  0.00  0.00    +0.093 C 
ATOM     14  C   UNL A   1      -2.887  -0.375  -0.428  0.00  0.00    +0.041 C 
ATOM     15  C   UNL A   1      -0.655   1.423   0.212  0.00  0.00    +0.077 A 
ATOM     16  C   UNL A   1       0.193   2.428  -0.343  0.00  0.00    -0.004 A 
ATOM     17  C   UNL A   1       1.460   2.204  -1.131  0.00  0.00    +0.033 C 
ATOM     18  C   UNL A   1       1.569   0.865  -1.836  0.00  0.00    +0.031 C 
ATOM     19  C   UNL A   1      -0.109   3.769  -0.087  0.00  0.00    -0.001 A 
ATOM     20  C   UNL A   1      -1.213   4.122   0.683  0.00  0.00    +0.020 A 
ATOM     21  C   UNL A   1      -2.015   3.119   1.212  0.00  0.00    +0.099 A 
ATOM     22  N   UNL A   1      -1.720   1.816   0.971  0.00  0.00    -0.244 NA
ENDROOT
TORSDOF 0
