REMARK  3 active torsions:
REMARK  status: ('A' for Active; 'I' for Inactive)
REMARK    1  A    between atoms: C_11  and  O_12 
REMARK    2  A    between atoms: C_19  and  O_20 
REMARK    3  A    between atoms: C_22  and  O_23 
ROOT
ATOM      1  C   UNL d   1      -1.998  -1.702  -1.618  0.00  0.00     0.018 C 
ATOM      2  C   UNL d   1      -2.089  -0.561  -0.624  0.00  0.00    -0.011 C 
ATOM      3  C   UNL d   1      -1.149   0.570  -1.086  0.00  0.00     0.013 C 
ATOM      4  C   UNL d   1      -0.615   1.387   0.083  0.00  0.00     0.010 C 
ATOM      5  C   UNL d   1       0.281   0.520   0.969  0.00  0.00     0.023 C 
ATOM      6  C   UNL d   1      -0.332  -0.884   1.269  0.00  0.00    -0.001 C 
ATOM      7  C   UNL d   1       0.547  -2.085   0.892  0.00  0.00     0.010 C 
ATOM      8  C   UNL d   1       1.289  -1.852  -0.417  0.00  0.00     0.039 C 
ATOM      9  C   UNL d   1       2.158  -0.648  -0.273  0.00  0.00    -0.049 A 
ATOM     10  C   UNL d   1       3.444  -0.647  -0.822  0.00  0.00     0.044 A 
ATOM     11  C   UNL d   1       4.264   0.476  -0.680  0.00  0.00     0.066 A 
ATOM     12  C   UNL d   1       3.799   1.600   0.008  0.00  0.00     0.037 A 
ATOM     13  C   UNL d   1       2.511   1.605   0.552  0.00  0.00     0.011 A 
ATOM     14  C   UNL d   1       1.683   0.484   0.414  0.00  0.00    -0.047 A 
ATOM     15  C   UNL d   1      -1.777  -1.087   0.786  0.00  0.00     0.003 C 
ATOM     16  C   UNL d   1      -2.769  -0.443   1.748  0.00  0.00     0.040 C 
ATOM     17  C   UNL d   1      -3.791   0.311   0.914  0.00  0.00     0.148 C 
ATOM     18  C   UNL d   1      -3.542  -0.106  -0.530  0.00  0.00     0.155 C 
ENDROOT
BRANCH  11  19
ATOM     19  O   UNL d   1       5.541   0.474  -1.223  0.00  0.00    -0.361 OA
ATOM     20  HO  UNL d   1       6.099   1.238  -1.127  1.00  0.00     0.217 HD
ENDBRANCH  11  19
BRANCH  18  21
ATOM     21  O   UNL d   1      -3.865   0.905  -1.443  0.00  0.00    -0.392 OA
ATOM     22  HO  UNL d   1      -3.710   0.645  -2.343  1.00  0.00     0.210 HD
ENDBRANCH  18  21
BRANCH  17  23
ATOM     23  O   UNL d   1      -3.591   1.683   1.079  0.00  0.00    -0.393 OA
ATOM     24  HO  UNL d   1      -4.230   2.155   0.558  1.00  0.00     0.210 HD
ENDBRANCH  17  23
TORSDOF 3
