REMARK  2 active torsions:
REMARK  status: ('A' for Active; 'I' for Inactive)
REMARK    1  A    between atoms: C_2  and  C_4 
REMARK    2  A    between atoms: C_10  and  S_16 
ROOT
ATOM      1  C   UNL d   1       2.612  -0.211  -0.330  0.00  0.00    -0.054 A 
ATOM      2  C   UNL d   1       2.180  -1.238  -1.160  0.00  0.00     0.008 A 
ATOM      3  C   UNL d   1       0.901  -1.688  -1.460  0.00  0.00     0.008 A 
ATOM      4  C   UNL d   1      -0.351  -1.262  -1.032  0.00  0.00    -0.049 A 
ATOM      5  C   UNL d   1      -1.470  -2.047  -1.620  0.00  0.00     0.049 C 
ATOM      6  C   UNL d   1      -0.587  -0.203  -0.135  0.00  0.00     0.005 A 
ATOM      7  C   UNL d   1      -1.821   0.278   0.339  0.00  0.00     0.092 A 
ATOM      8  C   UNL d   1      -1.623   1.334   1.208  0.00  0.00     0.035 A 
ATOM      9  C   UNL d   1      -0.269   1.548   1.306  0.00  0.00    -0.049 A 
ATOM     10  C   UNL d   1       0.344   2.610   2.155  0.00  0.00     0.049 C 
ATOM     11  C   UNL d   1       0.414   0.647   0.515  0.00  0.00    -0.017 A 
ATOM     12  C   UNL d   1       1.797   0.631   0.420  0.00  0.00     0.020 A 
ENDROOT
BRANCH   7  13
ATOM     13  S   UNL d   1      -3.450  -0.286  -0.035  0.00  0.00     0.138 S 
ATOM     14  O   UNL d   1      -4.562   0.649   0.809  0.00  0.00    -0.591 OA
ATOM     15  O   UNL d   1      -3.611  -1.720   0.385  0.00  0.00    -0.591 OA
ATOM     16  O   UNL d   1      -3.723  -0.143  -1.506  0.00  0.00    -0.591 OA
ENDBRANCH   7  13
BRANCH   1  17
ATOM     17  C   UNL d   1       4.096  -0.017  -0.256  0.00  0.00     0.010 C 
ATOM     18  C   UNL d   1       4.505   1.356  -0.759  0.00  0.00     0.015 C 
ATOM     19  C   UNL d   1       4.617  -0.239   1.154  0.00  0.00     0.015 C 
ENDBRANCH   1  17
TORSDOF 2
