REMARK  9 active torsions:
REMARK  status: ('A' for Active; 'I' for Inactive)
REMARK    1  A    between atoms: N_9  and  C_22 
REMARK    2  A    between atoms: C_22  and  C_23 
REMARK    3  A    between atoms: C_23  and  C_24 
REMARK    4  A    between atoms: C_23  and  O_33 
REMARK    5  A    between atoms: C_24  and  C_25 
REMARK    6  A    between atoms: C_24  and  O_31 
REMARK    7  A    between atoms: C_25  and  C_26 
REMARK    8  A    between atoms: C_25  and  O_29 
REMARK    9  A    between atoms: C_26  and  O_27 
ROOT
ATOM      1  C   UNL d   1      -4.818  -3.350   0.237  0.00  0.00     0.049 C 
ATOM      2  C   UNL d   1      -3.619  -2.500  -0.015  0.00  0.00    -0.054 A 
ATOM      3  C   UNL d   1      -3.716  -1.123   0.199  0.00  0.00     0.039 A 
ATOM      4  C   UNL d   1      -2.618  -0.289  -0.023  0.00  0.00     0.060 A 
ATOM      5  C   UNL d   1      -1.385  -0.838  -0.469  0.00  0.00     0.063 A 
ATOM      6  C   UNL d   1      -1.304  -2.225  -0.683  0.00  0.00     0.039 A 
ATOM      7  C   UNL d   1      -2.405  -3.054  -0.459  0.00  0.00    -0.054 A 
ATOM      8  C   UNL d   1      -2.259  -4.518  -0.701  0.00  0.00     0.049 C 
ATOM      9  N   UNL d   1      -0.302  -0.021  -0.688  0.00  0.00    -0.327 N 
ATOM     10  C   UNL d   1      -0.414   1.325  -0.482  0.00  0.00     0.145 A 
ATOM     11  N   UNL d   1       0.628   2.172  -0.690  0.00  0.00    -0.292 N 
ATOM     12  HN  UNL d   1       1.522   1.800  -1.012  1.00  0.00     0.172 HD
ATOM     13  C   UNL d   1       0.497   3.509  -0.475  0.00  0.00     0.328 A 
ATOM     14  O   UNL d   1       1.478   4.271  -0.675  0.00  0.00    -0.247 OA
ATOM     15  N   UNL d   1      -0.686   4.030  -0.045  0.00  0.00    -0.273 N 
ATOM     16  HN  UNL d   1      -0.755   5.037   0.107  1.00  0.00     0.173 HD
ATOM     17  C   UNL d   1      -1.778   3.254   0.186  0.00  0.00     0.280 A 
ATOM     18  O   UNL d   1      -2.850   3.783   0.582  0.00  0.00    -0.265 OA
ATOM     19  C   UNL d   1      -1.696   1.878  -0.019  0.00  0.00     0.146 A 
ATOM     20  N   UNL d   1      -2.742   1.045   0.191  0.00  0.00    -0.347 N 
ATOM     21  HN  UNL d   1      -3.633   1.425   0.512  1.00  0.00     0.166 HD
ENDROOT
BRANCH   9  22
ATOM     22  C   UNL d   1       0.978  -0.580  -1.135  0.00  0.00     0.165 C 
BRANCH  22  23
ATOM     23  C   UNL d   1       1.938  -0.730   0.041  0.00  0.00     0.167 C 
BRANCH  23  24
ATOM     24  C   UNL d   1       3.358  -1.023  -0.460  0.00  0.00     0.179 C 
BRANCH  24  25
ATOM     25  C   UNL d   1       4.392  -1.122   0.667  0.00  0.00     0.173 C 
BRANCH  25  26
ATOM     26  C   UNL d   1       4.403   0.117   1.553  0.00  0.00     0.198 C 
BRANCH  26  27
ATOM     27  O   UNL d   1       5.488   0.064   2.429  0.00  0.00    -0.398 OA
ATOM     28  HO  UNL d   1       5.495   0.837   2.981  1.00  0.00     0.209 HD
ENDBRANCH  26  27
ENDBRANCH  25  26
BRANCH  25  29
ATOM     29  O   UNL d   1       4.175  -2.268   1.435  0.00  0.00    -0.391 OA
ATOM     30  HO  UNL d   1       4.816  -2.329   2.134  1.00  0.00     0.210 HD
ENDBRANCH  25  29
ENDBRANCH  24  25
BRANCH  24  31
ATOM     31  O   UNL d   1       3.763  -0.043  -1.370  0.00  0.00    -0.390 OA
ATOM     32  HO  UNL d   1       4.642  -0.225  -1.680  1.00  0.00     0.210 HD
ENDBRANCH  24  31
ENDBRANCH  23  24
BRANCH  23  33
ATOM     33  O   UNL d   1       1.494  -1.762   0.869  0.00  0.00    -0.391 OA
ATOM     34  HO  UNL d   1       2.092  -1.856   1.602  1.00  0.00     0.210 HD
ENDBRANCH  23  33
ENDBRANCH  22  23
ENDBRANCH   9  22
TORSDOF 9
