REMARK  6 active torsions:
REMARK  status: ('A' for Active; 'I' for Inactive)
REMARK    1  A    between atoms: O_2  and  C_3 
REMARK    2  A    between atoms: C_5  and  O_6 
REMARK    3  A    between atoms: C_9  and  C_11 
REMARK    4  A    between atoms: C_12  and  C_13 
REMARK    5  A    between atoms: C_17  and  N_16 
REMARK       I    between atoms: N_20  and  C_22 
REMARK    6  A    between atoms: C_22  and  C_24 
ROOT
ATOM      1  C   UNL d   1       0.279  -0.904  -0.287  0.00  0.00     0.119 A 
ATOM      2  N   UNL d   1       1.277  -0.101  -0.731  0.00  0.00    -0.287 N 
ATOM      3  HN  UNL d   1       1.226   0.911  -0.854  1.00  0.00     0.188 HD
ATOM      4  N   UNL d   1       2.336  -0.869  -0.978  0.00  0.00    -0.268 N 
ATOM      5  C   UNL d   1       2.015  -2.141  -0.694  0.00  0.00     0.140 A 
ATOM      6  N   UNL d   1       2.806  -3.236  -0.804  0.00  0.00    -0.337 N 
ATOM      7  HN  UNL d   1       3.767  -3.159  -1.135  1.00  0.00     0.168 HD
ATOM      8  C   UNL d   1       2.275  -4.448  -0.457  0.00  0.00     0.183 A 
ATOM      9  N   UNL d   1       0.980  -4.542  -0.013  0.00  0.00    -0.340 N 
ATOM     10  HN  UNL d   1       0.603  -5.455   0.241  1.00  0.00     0.167 HD
ATOM     11  C   UNL d   1       0.185  -3.437   0.098  0.00  0.00     0.134 A 
ATOM     12  N   UNL d   1      -1.156  -3.553   0.561  0.00  0.00    -0.082 NA
ATOM     13  C   UNL d   1       0.732  -2.209  -0.256  0.00  0.00     0.087 A 
ENDROOT
BRANCH   1  14
ATOM     14  C   UNL d   1      -1.029  -0.436   0.082  0.00  0.00    -0.041 C 
ATOM     15  C   UNL d   1      -2.126  -0.045   0.391  0.00  0.00    -0.060 C 
BRANCH  15  16
ATOM     16  C   UNL d   1      -3.434   0.416   0.758  0.00  0.00     0.023 A 
ATOM     17  C   UNL d   1      -4.511   0.228  -0.112  0.00  0.00     0.057 A 
ATOM     18  C   UNL d   1      -5.794   0.676   0.242  0.00  0.00     0.072 A 
ATOM     19  C   UNL d   1      -5.984   1.313   1.473  0.00  0.00     0.073 A 
ATOM     20  C   UNL d   1      -4.911   1.505   2.351  0.00  0.00     0.072 A 
ATOM     21  C   UNL d   1      -3.632   1.053   1.986  0.00  0.00     0.057 A 
BRANCH  18  22
ATOM     22  O   UNL d   1      -6.891   0.503  -0.606  0.00  0.00    -0.356 OA
ATOM     23  C   UNL d   1      -6.789  -0.132  -1.873  0.00  0.00     0.210 C 
ENDBRANCH  18  22
BRANCH  20  24
ATOM     24  O   UNL d   1      -5.142   2.145   3.571  0.00  0.00    -0.356 OA
ATOM     25  C   UNL d   1      -4.111   2.382   4.521  0.00  0.00     0.210 C 
ENDBRANCH  20  24
ENDBRANCH  15  16
ENDBRANCH   1  14
BRANCH   4  26
ATOM     26  C   UNL d   1       3.621  -0.390  -1.470  0.00  0.00     0.129 C 
ATOM     27  C   UNL d   1       3.451   0.324  -2.804  0.00  0.00     0.049 C 
ATOM     28  C   UNL d   1       4.288   1.586  -2.721  0.00  0.00     0.128 C 
ATOM     29  N   UNL d   1       4.656   1.733  -1.326  0.00  0.00    -0.347 N 
ATOM     30  C   UNL d   1       4.218   0.620  -0.508  0.00  0.00     0.153 C 
ATOM     31  C   UNL d   1       5.311   2.918  -0.833  0.00  0.00     0.242 C 
ATOM     32  O   UNL d   1       5.476   3.896  -1.610  0.00  0.00    -0.268 OA
BRANCH  31  33
ATOM     33  C   UNL d   1       5.812   3.057   0.548  0.00  0.00     0.064 C 
ATOM     34  C   UNL d   1       5.793   2.087   1.453  0.00  0.00     0.017 C 
ENDBRANCH  31  33
ENDBRANCH   4  26
TORSDOF 6
