REMARK  Name = fda_5218
REMARK  6 active torsions:
REMARK  status: ('A' for Active; 'I' for Inactive)
REMARK    1  A    between atoms: C_2  and  C_3
REMARK    2  A    between atoms: C_2  and  C_9
REMARK    3  A    between atoms: C_2  and  O_15
REMARK    4  A    between atoms: O_15  and  C_16
REMARK    5  A    between atoms: C_16  and  C_17
REMARK    6  A    between atoms: C_17  and  N_20
REMARK                            x       y       z     vdW  Elec       q    Type
REMARK                         _______ _______ _______ _____ _____    ______ ____
ROOT
ATOM      1  C   UNL A   1      -1.025  -0.481   2.298  0.00  0.00    +0.040 C 
ATOM      2  C   UNL A   1      -0.367   0.044   1.012  0.00  0.00    +0.146 C 
ENDROOT
BRANCH   2   3
ATOM      3  C   UNL A   1      -0.933   1.430   0.755  0.00  0.00    +0.007 A 
ATOM      4  C   UNL A   1      -0.092   2.555   0.691  0.00  0.00    -0.002 A 
ATOM      5  C   UNL A   1      -0.620   3.825   0.445  0.00  0.00    -0.000 A 
ATOM      6  C   UNL A   1      -1.995   3.987   0.258  0.00  0.00    -0.000 A 
ATOM      7  C   UNL A   1      -2.843   2.879   0.317  0.00  0.00    -0.000 A 
ATOM      8  C   UNL A   1      -2.316   1.608   0.564  0.00  0.00    -0.002 A 
ENDBRANCH   2   3
BRANCH   2   9
ATOM      9  C   UNL A   1      -0.699  -0.833  -0.189  0.00  0.00    +0.087 A 
ATOM     10  C   UNL A   1      -0.068  -0.602  -1.420  0.00  0.00    +0.017 A 
ATOM     11  C   UNL A   1      -0.390  -1.397  -2.521  0.00  0.00    +0.003 A 
ATOM     12  C   UNL A   1      -1.341  -2.409  -2.391  0.00  0.00    +0.021 A 
ATOM     13  C   UNL A   1      -1.959  -2.609  -1.156  0.00  0.00    +0.099 A 
ATOM     14  N   UNL A   1      -1.632  -1.825  -0.094  0.00  0.00    -0.245 NA
ENDBRANCH   2   9
BRANCH   2  15
ATOM     15  O   UNL A   1       1.042   0.144   1.190  0.00  0.00    -0.347 OA
BRANCH  15  16
ATOM     16  C   UNL A   1       1.595  -1.123   1.466  0.00  0.00    +0.160 C 
BRANCH  16  17
ATOM     17  C   UNL A   1       3.037  -1.172   0.991  0.00  0.00    +0.105 C 
BRANCH  17  20
ATOM     18  C   UNL A   1       3.159  -2.458  -0.959  0.00  0.00    +0.090 C 
ATOM     19  C   UNL A   1       4.356  -0.468  -0.797  0.00  0.00    +0.090 C 
ATOM     20  N   UNL A   1       3.091  -1.095  -0.460  0.00  0.00    -0.268 NA
ENDBRANCH  17  20
ENDBRANCH  16  17
ENDBRANCH  15  16
ENDBRANCH   2  15
TORSDOF 6
