REMARK  5 active torsions:
REMARK  status: ('A' for Active; 'I' for Inactive)
REMARK    1  A    between atoms: C_3  and  O_1 
REMARK    2  A    between atoms: C_10  and  C_11 
REMARK    3  A    between atoms: C_11  and  C_12 
REMARK    4  A    between atoms: C_12  and  C_14 
REMARK    5  A    between atoms: C_14  and  N_15 
ROOT
ATOM      1  N   UNL d   1      -0.557   0.848  -0.947  0.00  0.00    -0.303 N 
ATOM      2  C   UNL d   1      -1.338   0.707  -2.054  0.00  0.00     0.187 A 
ATOM      3  N   UNL d   1      -2.645   0.357  -1.938  0.00  0.00    -0.351 N 
ATOM      4  HN  UNL d   1      -3.215   0.257  -2.778  1.00  0.00     0.166 HD
ATOM      5  C   UNL d   1      -3.202   0.140  -0.721  0.00  0.00     0.050 A 
ATOM      6  C   UNL d   1      -4.548  -0.220  -0.621  0.00  0.00     0.051 A 
ATOM      7  C   UNL d   1      -5.127  -0.446   0.631  0.00  0.00     0.035 A 
ATOM      8 BR   UNL d   1      -6.975  -0.936   0.703  0.00  0.00    -0.049 Br
ATOM      9  C   UNL d   1      -4.351  -0.309   1.796  0.00  0.00     0.052 A 
ATOM     10 CL   UNL d   1      -5.030  -0.581   3.392  0.00  0.00    -0.083 Cl
ATOM     11  C   UNL d   1      -3.003   0.051   1.697  0.00  0.00     0.044 A 
ATOM     12  C   UNL d   1      -2.422   0.277   0.442  0.00  0.00     0.060 A 
ATOM     13  C   UNL d   1      -1.075   0.640   0.302  0.00  0.00     0.261 A 
ATOM     14  O   UNL d   1      -0.346   0.776   1.324  0.00  0.00    -0.267 OA
ENDROOT
BRANCH   1  15
ATOM     15  C   UNL d   1       0.843   1.213  -1.128  0.00  0.00     0.211 C 
BRANCH  15  16
ATOM     16  C   UNL d   1       1.676  -0.006  -1.365  0.00  0.00     0.147 C 
ATOM     17  O   UNL d   1       1.925  -0.358  -2.507  0.00  0.00    -0.296 OA
BRANCH  16  18
ATOM     18  C   UNL d   1       2.147  -0.827  -0.201  0.00  0.00     0.115 C 
BRANCH  18  19
ATOM     19  C   UNL d   1       3.660  -0.759   0.005  0.00  0.00     0.221 C 
ATOM     20  N   UNL d   1       4.375  -1.318  -1.143  0.00  0.00    -0.068 N 
ATOM     21  C   UNL d   1       5.782  -1.510  -0.777  0.00  0.00     0.233 C 
ATOM     22  HN2 UNL d   1       4.265  -0.751  -1.983  1.00  0.00     0.277 HD
ATOM     23  HN1 UNL d   1       3.943  -2.174  -1.491  1.00  0.00     0.277 HD
ATOM     24  C   UNL d   1       6.425  -0.243  -0.186  0.00  0.00     0.030 C 
ATOM     25  C   UNL d   1       5.503   0.972  -0.282  0.00  0.00     0.035 C 
ATOM     26  C   UNL d   1       4.127   0.672   0.317  0.00  0.00     0.149 C 
BRANCH  26  27
ATOM     27  O   UNL d   1       4.159   0.861   1.699  0.00  0.00    -0.393 OA
ATOM     28  HO  UNL d   1       3.305   0.674   2.071  1.00  0.00     0.210 HD
ENDBRANCH  26  27
ENDBRANCH  18  19
ENDBRANCH  16  18
ENDBRANCH  15  16
ENDBRANCH   1  15
TORSDOF 5
