REMARK  6 active torsions:
REMARK  status: ('A' for Active; 'I' for Inactive)
REMARK    1  A    between atoms: C_2  and  O_3 
REMARK    2  A    between atoms: O_3  and  C_4 
REMARK    3  A    between atoms: C_6  and  C_4 
REMARK    4  A    between atoms: C_11  and  C_21 
REMARK    5  A    between atoms: C_12  and  C_13 
REMARK    6  A    between atoms: C_21  and  O_23 
ROOT
ATOM      1  C   UNL d   1       1.256  -0.465  -0.318  0.00  0.00     0.144 C 
ATOM      2  C   UNL d   1       1.635   0.567  -1.343  0.00  0.00    -0.003 C 
ATOM      3  N   UNL d   1       1.308   1.814  -1.184  0.00  0.00    -0.366 N 
ATOM      4  HN  UNL d   1       1.626   2.490  -1.880  1.00  0.00     0.165 HD
ATOM      5  C   UNL d   1       0.524   2.293  -0.079  0.00  0.00     0.018 C 
ATOM      6  C   UNL d   1      -0.088   1.419   0.757  0.00  0.00     0.049 C 
ATOM      7  C   UNL d   1      -0.013  -0.063   0.444  0.00  0.00     0.080 C 
ATOM      8  C   UNL d   1       0.415   3.772   0.079  0.00  0.00     0.069 C 
ATOM      9  C   UNL d   1       2.445   0.166  -2.524  0.00  0.00     0.064 C 
ENDROOT
BRANCH   7  10
ATOM     10  C   UNL d   1      -1.250  -0.568  -0.249  0.00  0.00    -0.025 A 
ATOM     11  C   UNL d   1      -1.968  -1.660   0.279  0.00  0.00     0.062 A 
ATOM     12  C   UNL d   1      -3.116  -2.127  -0.389  0.00  0.00     0.056 A 
ATOM     13 CL   UNL d   1      -1.430  -2.442   1.767  0.00  0.00    -0.082 Cl
ATOM     14  C   UNL d   1      -3.534  -1.513  -1.573  0.00  0.00     0.026 A 
ATOM     15 CL   UNL d   1      -4.053  -3.479   0.225  0.00  0.00    -0.083 Cl
ATOM     16  C   UNL d   1      -2.819  -0.438  -2.100  0.00  0.00     0.002 A 
ATOM     17  C   UNL d   1      -1.682   0.031  -1.443  0.00  0.00     0.010 A 
ENDBRANCH   7  10
BRANCH   1  18
ATOM     18  C   UNL d   1       2.384  -0.730   0.629  0.00  0.00     0.269 C 
ATOM     19  O   UNL d   1       2.861   0.205   1.331  0.00  0.00    -0.264 OA
BRANCH  18  20
ATOM     20  O   UNL d   1       2.889  -2.027   0.733  0.00  0.00    -0.321 OA
BRANCH  20  21
ATOM     21  C   UNL d   1       3.976  -2.357   1.589  0.00  0.00     0.174 C 
ATOM     22  C   UNL d   1       5.285  -1.899   0.974  0.00  0.00     0.034 C 
ENDBRANCH  20  21
ENDBRANCH  18  20
ENDBRANCH   1  18
BRANCH   6  23
ATOM     23  C   UNL d   1      -0.881   1.826   1.949  0.00  0.00     0.291 C 
ATOM     24  O   UNL d   1      -1.483   0.943   2.619  0.00  0.00    -0.260 OA
BRANCH  23  25
ATOM     25  O   UNL d   1      -0.956   3.163   2.348  0.00  0.00    -0.323 OA
ATOM     26  C   UNL d   1      -1.704   3.568   3.485  0.00  0.00     0.213 C 
ENDBRANCH  23  25
ENDBRANCH   6  23
TORSDOF 6
