REMARK  6 active torsions:
REMARK  status: ('A' for Active; 'I' for Inactive)
REMARK    1  A    between atoms: C_3  and  O_25 
REMARK    2  A    between atoms: C_4  and  O_23 
REMARK    3  A    between atoms: C_7  and  C_6 
REMARK    4  A    between atoms: C_8  and  O_21 
REMARK    5  A    between atoms: C_11  and  O_19 
REMARK    6  A    between atoms: C_13  and  O_17 
ROOT
ATOM      1  C   UNL d   1       0.210  -1.672  -0.826  0.00  0.00     0.191 C 
ATOM      2  C   UNL d   1      -0.511  -2.195   0.427  0.00  0.00     0.156 C 
ATOM      3  C   UNL d   1      -1.089  -1.046   1.252  0.00  0.00     0.079 C 
ATOM      4  C   UNL d   1      -1.895  -0.110   0.395  0.00  0.00     0.011 A 
ATOM      5  C   UNL d   1      -2.875   0.713   0.973  0.00  0.00     0.077 A 
ATOM      6  C   UNL d   1      -3.591   1.611   0.176  0.00  0.00     0.073 A 
ATOM      7  C   UNL d   1      -3.329   1.701  -1.194  0.00  0.00     0.071 A 
ATOM      8  C   UNL d   1      -2.347   0.894  -1.772  0.00  0.00     0.074 A 
ATOM      9  C   UNL d   1      -1.623  -0.006  -0.985  0.00  0.00     0.081 A 
ATOM     10  O   UNL d   1      -0.648  -0.815  -1.584  0.00  0.00    -0.338 OA
ENDROOT
BRANCH   1  11
ATOM     11  C   UNL d   1       1.518  -0.996  -0.526  0.00  0.00    -0.024 A 
ATOM     12  C   UNL d   1       2.712  -1.691  -0.751  0.00  0.00     0.013 A 
ATOM     13  C   UNL d   1       3.941  -1.089  -0.468  0.00  0.00     0.040 A 
ATOM     14  C   UNL d   1       3.984   0.211   0.045  0.00  0.00     0.098 A 
ATOM     15  C   UNL d   1       2.792   0.911   0.276  0.00  0.00     0.099 A 
ATOM     16  C   UNL d   1       1.564   0.307  -0.008  0.00  0.00     0.049 A 
BRANCH  14  17
ATOM     17  O   UNL d   1       5.210   0.801   0.323  0.00  0.00    -0.358 OA
ATOM     18  HO  UNL d   1       5.239   1.685   0.671  1.00  0.00     0.217 HD
ENDBRANCH  14  17
BRANCH  15  19
ATOM     19  O   UNL d   1       2.822   2.202   0.787  0.00  0.00    -0.358 OA
ATOM     20  HO  UNL d   1       2.014   2.676   0.943  1.00  0.00     0.217 HD
ENDBRANCH  15  19
ENDBRANCH   1  11
BRANCH   2  21
ATOM     21  O   UNL d   1       0.343  -2.970   1.212  0.00  0.00    -0.392 OA
ATOM     22  HO  UNL d   1      -0.102  -3.294   1.987  1.00  0.00     0.210 HD
ENDBRANCH   2  21
BRANCH   5  23
ATOM     23  O   UNL d   1      -3.145   0.643   2.334  0.00  0.00    -0.360 OA
ATOM     24  HO  UNL d   1      -3.808   1.200   2.725  1.00  0.00     0.217 HD
ENDBRANCH   5  23
BRANCH   7  25
ATOM     25  O   UNL d   1      -4.045   2.594  -1.979  0.00  0.00    -0.361 OA
ATOM     26  HO  UNL d   1      -3.867   2.655  -2.910  1.00  0.00     0.217 HD
ENDBRANCH   7  25
TORSDOF 6
