REMARK  7 active torsions:
REMARK  status: ('A' for Active; 'I' for Inactive)
REMARK    1  A    between atoms: N_1  and  C_3 
REMARK    2  A    between atoms: N_1  and  C_17 
REMARK    3  A    between atoms: C_4  and  C_5 
REMARK    4  A    between atoms: C_5  and  C_6 
REMARK    5  A    between atoms: C_6  and  O_7 
REMARK    6  A    between atoms: O_7  and  C_8 
REMARK    7  A    between atoms: C_8  and  C_9 
ROOT
ATOM      1  C   UNL d   1      -0.494  -0.929  -0.926  0.00  0.00     0.039 A 
ATOM      2  C   UNL d   1       0.391  -0.627  -1.978  0.00  0.00    -0.022 A 
ATOM      3  C   UNL d   1       1.186  -1.638  -2.531  0.00  0.00     0.010 A 
ATOM      4  C   UNL d   1       1.093  -2.948  -2.056  0.00  0.00     0.001 A 
ATOM      5  C   UNL d   1       0.205  -3.255  -1.023  0.00  0.00     0.002 A 
ATOM      6  C   UNL d   1      -0.587  -2.250  -0.462  0.00  0.00     0.030 A 
ENDROOT
BRANCH   1   7
ATOM      7  N   UNL d   1      -1.318   0.103  -0.364  0.00  0.00    -0.353 N 
ATOM      8  HN  UNL d   1      -1.415   0.970  -0.893  1.00  0.00     0.166 HD
BRANCH   7   9
ATOM      9  C   UNL d   1      -2.016   0.004   0.885  0.00  0.00     0.076 A 
ATOM     10  C   UNL d   1      -1.331  -0.277   2.087  0.00  0.00     0.062 A 
ATOM     11 CL   UNL d   1       0.416  -0.455   2.146  0.00  0.00    -0.082 Cl
ATOM     12  C   UNL d   1      -2.040  -0.354   3.289  0.00  0.00     0.026 A 
ATOM     13  C   UNL d   1      -3.419  -0.143   3.311  0.00  0.00     0.003 A 
ATOM     14  C   UNL d   1      -4.096   0.162   2.129  0.00  0.00     0.026 A 
ATOM     15  C   UNL d   1      -3.400   0.247   0.921  0.00  0.00     0.062 A 
ATOM     16 CL   UNL d   1      -4.291   0.634  -0.542  0.00  0.00    -0.082 Cl
ENDBRANCH   7   9
ENDBRANCH   1   7
BRANCH   2  17
ATOM     17  C   UNL d   1       0.537   0.768  -2.494  0.00  0.00     0.151 C 
BRANCH  17  18
ATOM     18  C   UNL d   1       1.426   1.562  -1.599  0.00  0.00     0.263 C 
ATOM     19  O   UNL d   1       0.930   2.469  -0.877  0.00  0.00    -0.265 OA
BRANCH  18  20
ATOM     20  O   UNL d   1       2.793   1.277  -1.554  0.00  0.00    -0.311 OA
BRANCH  20  21
ATOM     21  C   UNL d   1       3.680   1.929  -0.653  0.00  0.00     0.291 C 
BRANCH  21  22
ATOM     22  C   UNL d   1       3.519   1.376   0.722  0.00  0.00     0.198 C 
ATOM     23  O   UNL d   1       2.846   2.109   1.690  0.00  0.00    -0.646 OA
ATOM     24  O   UNL d   1       3.972   0.236   1.000  0.00  0.00    -0.646 OA
ENDBRANCH  21  22
ENDBRANCH  20  21
ENDBRANCH  18  20
ENDBRANCH  17  18
ENDBRANCH   2  17
TORSDOF 7
