REMARK  4 active torsions:
REMARK  status: ('A' for Active; 'I' for Inactive)
REMARK    1  A    between atoms: C_5  and  O_6 
REMARK    2  A    between atoms: C_8  and  O_9 
REMARK    3  A    between atoms: C_14  and  O_15 
REMARK    4  A    between atoms: C_17  and  O_18 
ROOT
ATOM      1  C   UNL d   1      -1.731  -1.461   0.670  0.00  0.00     0.261 C 
ATOM      2  C   UNL d   1      -0.676  -2.373   0.039  0.00  0.00     0.080 C 
ATOM      3  C   UNL d   1       0.682  -1.757   0.135  0.00  0.00    -0.042 A 
ATOM      4  C   UNL d   1       1.792  -2.594   0.277  0.00  0.00     0.047 A 
ATOM      5  C   UNL d   1       3.079  -2.058   0.335  0.00  0.00     0.099 A 
ATOM      6  C   UNL d   1       3.268  -0.674   0.245  0.00  0.00     0.102 A 
ATOM      7  C   UNL d   1       2.152   0.162   0.090  0.00  0.00     0.052 A 
ATOM      8  C   UNL d   1       0.851  -0.361   0.017  0.00  0.00    -0.013 A 
ATOM      9  C   UNL d   1      -0.350   0.526  -0.112  0.00  0.00     0.020 A 
ATOM     10  C   UNL d   1      -0.259   1.886  -0.518  0.00  0.00     0.113 A 
ATOM     11  C   UNL d   1      -1.436   2.673  -0.556  0.00  0.00     0.100 A 
ATOM     12  C   UNL d   1      -2.665   2.119  -0.211  0.00  0.00     0.047 A 
ATOM     13  C   UNL d   1      -2.766   0.788   0.172  0.00  0.00    -0.044 A 
ATOM     14  C   UNL d   1      -4.126   0.236   0.479  0.00  0.00     0.069 C 
ATOM     15  C   UNL d   1      -4.056  -1.129   1.176  0.00  0.00     0.277 C 
ATOM     16  N   UNL d   1      -3.086  -2.029   0.544  0.00  0.00     0.093 N 
ATOM     17  C   UNL d   1      -3.454  -2.254  -0.855  0.00  0.00     0.310 C 
ATOM     18  C   UNL d   1      -1.621  -0.026   0.186  0.00  0.00    -0.004 A 
ENDROOT
BRANCH   5  19
ATOM     19  O   UNL d   1       4.169  -2.907   0.483  0.00  0.00    -0.358 OA
ATOM     20  HO  UNL d   1       5.045  -2.542   0.522  1.00  0.00     0.217 HD
ENDBRANCH   5  19
BRANCH   6  21
ATOM     21  O   UNL d   1       4.564  -0.152   0.311  0.00  0.00    -0.353 OA
ATOM     22  C   UNL d   1       4.837   1.240   0.224  0.00  0.00     0.210 C 
ENDBRANCH   6  21
BRANCH  10  23
ATOM     23  O   UNL d   1       0.997   2.403  -0.882  0.00  0.00    -0.352 OA
ATOM     24  C   UNL d   1       1.247   3.733  -1.314  0.00  0.00     0.210 C 
ENDBRANCH  10  23
BRANCH  11  25
ATOM     25  O   UNL d   1      -1.411   4.010  -0.935  0.00  0.00    -0.358 OA
ATOM     26  HO  UNL d   1      -2.200   4.538  -0.960  1.00  0.00     0.217 HD
ENDBRANCH  11  25
TORSDOF 4
