REMARK  4 active torsions:
REMARK  status: ('A' for Active; 'I' for Inactive)
REMARK    1  A    between atoms: S_2  and  N_5 
REMARK    2  A    between atoms: C_14  and  N_9 
REMARK    3  A    between atoms: C_17  and  C_24 
REMARK    4  A    between atoms: C_18  and  N_19 
ROOT
ATOM      1  C   UNL d   1       0.143   0.345   0.368  0.00  0.00     0.249 C 
ATOM      2  C   UNL d   1      -0.699   1.591   0.005  0.00  0.00     0.204 C 
ATOM      3  O   UNL d   1      -2.045   1.434   0.376  0.00  0.00    -0.377 OA
ATOM      4  C   UNL d   1      -2.574   0.480  -0.512  0.00  0.00     0.188 C 
ATOM      5  C   UNL d   1      -2.002  -0.922  -0.244  0.00  0.00     0.219 C 
ATOM      6  C   UNL d   1      -0.773  -0.862   0.670  0.00  0.00     0.073 C 
ENDROOT
BRANCH   1   7
ATOM      7  N   UNL d   1       1.104   0.033  -0.702  0.00  0.00     0.105 N 
ATOM      8  C   UNL d   1       1.938  -1.119  -0.279  0.00  0.00     0.315 A 
ATOM      9  C   UNL d   1       3.329  -0.654  -0.378  0.00  0.00     0.014 A 
ATOM     10  C   UNL d   1       4.423  -0.901   0.424  0.00  0.00     0.140 A 
ATOM     11  C   UNL d   1       3.375   0.636  -0.708  0.00  0.00     0.064 A 
ATOM     12  N   UNL d   1       5.114   0.260   0.456  0.00  0.00    -0.192 N 
ATOM     13  N   UNL d   1       4.446   1.228  -0.158  0.00  0.00    -0.287 N 
ATOM     14  HN  UNL d   1       4.694   2.217  -0.202  1.00  0.00     0.188 HD
ATOM     15  C   UNL d   1       2.021   1.186  -0.873  0.00  0.00     0.332 A 
BRANCH  12  16
ATOM     16  S   UNL d   1       6.556   0.528   1.370  0.00  0.00     0.245 S 
ATOM     17  C   UNL d   1       7.562   1.745   0.554  0.00  0.00     0.188 C 
ATOM     18  O   UNL d   1       7.334  -0.753   1.471  0.00  0.00    -0.204 OA
ATOM     19  O   UNL d   1       6.197   1.008   2.748  0.00  0.00    -0.204 OA
ENDBRANCH  12  16
ENDBRANCH   1   7
BRANCH   5  20
ATOM     20  N   UNL d   1      -1.653  -1.554  -1.504  0.00  0.00    -0.072 N 
ATOM     21  HN3 UNL d   1      -2.440  -1.577  -2.153  1.00  0.00     0.274 HD
ATOM     22  HN2 UNL d   1      -1.020  -0.980  -2.060  1.00  0.00     0.274 HD
ATOM     23  HN1 UNL d   1      -1.274  -2.484  -1.326  1.00  0.00     0.274 HD
ENDBRANCH   5  20
BRANCH   4  24
ATOM     24  C   UNL d   1      -4.070   0.469  -0.444  0.00  0.00     0.014 A 
ATOM     25  C   UNL d   1      -4.722   0.290   0.785  0.00  0.00     0.055 A 
ATOM     26  C   UNL d   1      -6.118   0.269   0.845  0.00  0.00     0.117 A 
ATOM     27  F   UNL d   1      -6.742   0.098   2.034  0.00  0.00    -0.206 F 
ATOM     28  C   UNL d   1      -6.869   0.422  -0.323  0.00  0.00     0.045 A 
ATOM     29  C   UNL d   1      -6.225   0.597  -1.551  0.00  0.00     0.046 A 
ATOM     30  C   UNL d   1      -4.829   0.619  -1.615  0.00  0.00     0.125 A 
ATOM     31  F   UNL d   1      -4.220   0.786  -2.815  0.00  0.00    -0.205 F 
ENDBRANCH   4  24
TORSDOF 4
