REMARK  5 active torsions:
REMARK  status: ('A' for Active; 'I' for Inactive)
REMARK    1  A    between atoms: C_2  and  C_4 
REMARK    2  A    between atoms: C_2  and  O_7 
REMARK    3  A    between atoms: O_7  and  C_8 
REMARK    4  A    between atoms: C_11  and  C_14 
REMARK    5  A    between atoms: C_14  and  C_16 
ROOT
ATOM      1  C   UNL d   1       2.215  -1.009   0.008  0.00  0.00     0.070 A 
ATOM      2  C   UNL d   1       1.413   0.035  -0.478  0.00  0.00     0.038 A 
ATOM      3  C   UNL d   1       0.036  -0.143  -0.628  0.00  0.00     0.018 A 
ATOM      4  C   UNL d   1      -0.568  -1.363  -0.289  0.00  0.00     0.015 A 
ATOM      5  C   UNL d   1       0.240  -2.407   0.185  0.00  0.00     0.018 A 
ATOM      6  C   UNL d   1       1.618  -2.230   0.335  0.00  0.00     0.038 A 
ENDROOT
BRANCH   4   7
ATOM      7  C   UNL d   1      -2.026  -1.587  -0.464  0.00  0.00     0.192 C 
ATOM      8  O   UNL d   1      -2.450  -2.776  -0.488  0.00  0.00    -0.287 OA
BRANCH   7   9
ATOM      9  C   UNL d   1      -3.010  -0.485  -0.611  0.00  0.00     0.015 A 
ATOM     10  C   UNL d   1      -2.710   0.830  -0.221  0.00  0.00     0.017 A 
ATOM     11  C   UNL d   1      -3.662   1.845  -0.345  0.00  0.00     0.025 A 
ATOM     12  C   UNL d   1      -4.928   1.555  -0.856  0.00  0.00     0.034 A 
ATOM     13  C   UNL d   1      -5.245   0.249  -1.237  0.00  0.00     0.025 A 
ATOM     14 CL   UNL d   1      -6.121   2.826  -1.013  0.00  0.00    -0.084 Cl
ATOM     15  C   UNL d   1      -4.292  -0.765  -1.112  0.00  0.00     0.017 A 
ENDBRANCH   7   9
ENDBRANCH   4   7
BRANCH   1  16
ATOM     16  O   UNL d   1       3.602  -0.870   0.177  0.00  0.00    -0.330 OA
BRANCH  16  17
ATOM     17  C   UNL d   1       4.366   0.307  -0.112  0.00  0.00     0.148 C 
ATOM     18  C   UNL d   1       5.822   0.009   0.189  0.00  0.00     0.058 C 
ATOM     19  C   UNL d   1       4.257   0.653  -1.592  0.00  0.00     0.058 C 
BRANCH  17  20
ATOM     20  C   UNL d   1       3.933   1.459   0.756  0.00  0.00     0.209 C 
ATOM     21  O   UNL d   1       4.123   2.649   0.387  0.00  0.00    -0.646 OA
ATOM     22  O   UNL d   1       3.387   1.216   2.011  0.00  0.00    -0.646 OA
ENDBRANCH  17  20
ENDBRANCH  16  17
ENDBRANCH   1  16
TORSDOF 5
