REMARK  2 active torsions:
REMARK  status: ('A' for Active; 'I' for Inactive)
REMARK    1  A    between atoms: C_10  and  O_13 
REMARK    2  A    between atoms: C_19  and  O_23 
ROOT
ATOM      1  C   UNL d   1      -1.071   2.477   0.486  0.00  0.00     0.020 C 
ATOM      2  C   UNL d   1      -1.826   1.142   0.575  0.00  0.00     0.003 C 
ATOM      3  C   UNL d   1      -1.342   0.406   1.839  0.00  0.00     0.014 C 
ATOM      4  C   UNL d   1      -0.185  -0.579   1.568  0.00  0.00     0.006 C 
ATOM      5  C   UNL d   1       0.720  -0.145   0.396  0.00  0.00    -0.002 C 
ATOM      6  C   UNL d   1      -0.072   0.080  -0.932  0.00  0.00    -0.005 C 
ATOM      7  C   UNL d   1      -1.562   0.289  -0.653  0.00  0.00     0.002 C 
ATOM      8  C   UNL d   1      -2.400   0.894  -1.759  0.00  0.00     0.010 C 
ATOM      9  C   UNL d   1      -3.620   1.470  -1.036  0.00  0.00     0.052 C 
ATOM     10  C   UNL d   1      -3.346   1.377   0.470  0.00  0.00     0.128 C 
ATOM     11  C   UNL d   1      -4.135   0.259   1.020  0.00  0.00    -0.078 C 
ATOM     12  C   UNL d   1      -4.779  -0.656   1.470  0.00  0.00     0.015 C 
ATOM     13  C   UNL d   1       0.125  -1.068  -1.918  0.00  0.00     0.009 C 
ATOM     14  C   UNL d   1       1.591  -1.149  -2.327  0.00  0.00     0.034 C 
ATOM     15  C   UNL d   1       2.501  -1.144  -1.131  0.00  0.00    -0.077 C 
ATOM     16  C   UNL d   1       3.819  -1.296  -1.337  0.00  0.00     0.007 C 
ATOM     17  C   UNL d   1       4.830  -1.298  -0.220  0.00  0.00     0.141 C 
ATOM     18  C   UNL d   1       4.195  -1.659   1.122  0.00  0.00     0.036 C 
ATOM     19  C   UNL d   1       2.952  -0.809   1.351  0.00  0.00     0.012 C 
ATOM     20  C   UNL d   1       1.910  -1.111   0.272  0.00  0.00     0.019 C 
ENDROOT
BRANCH  10  21
ATOM     21  O   UNL d   1      -3.737   2.561   1.103  0.00  0.00    -0.377 OA
ATOM     22  HO  UNL d   1      -4.674   2.706   1.038  1.00  0.00     0.211 HD
ENDBRANCH  10  21
BRANCH  17  23
ATOM     23  O   UNL d   1       5.433  -0.042  -0.134  0.00  0.00    -0.392 OA
ATOM     24  HO  UNL d   1       6.071  -0.043   0.570  1.00  0.00     0.210 HD
ENDBRANCH  17  23
TORSDOF 2
