REMARK  4 active torsions:
REMARK  status: ('A' for Active; 'I' for Inactive)
REMARK    1  A    between atoms: C_3  and  C_4 
REMARK    2  A    between atoms: C_3  and  N_21 
REMARK    3  A    between atoms: C_4  and  C_5 
REMARK    4  A    between atoms: C_5  and  N_6 
ROOT
ATOM      1  N   UNL d   1       0.246  -0.149   0.663  0.00  0.00    -0.345 N 
ATOM      2  C   UNL d   1       0.095  -1.573   0.832  0.00  0.00     0.052 A 
ATOM      3  C   UNL d   1       0.651  -2.220   1.946  0.00  0.00     0.031 A 
ATOM      4  C   UNL d   1       0.373  -3.568   2.192  0.00  0.00     0.002 A 
ATOM      5  C   UNL d   1      -0.471  -4.276   1.333  0.00  0.00     0.002 A 
ATOM      6  C   UNL d   1      -1.022  -3.644   0.216  0.00  0.00     0.021 A 
ATOM      7  C   UNL d   1      -0.735  -2.300  -0.042  0.00  0.00     0.032 A 
ATOM      8  S   UNL d   1      -1.304  -1.553  -1.569  0.00  0.00    -0.086 SA
ATOM      9  C   UNL d   1      -1.731   0.011  -0.804  0.00  0.00     0.032 A 
ATOM     10  C   UNL d   1      -0.847   0.612   0.112  0.00  0.00     0.053 A 
ATOM     11  C   UNL d   1      -1.125   1.903   0.585  0.00  0.00     0.054 A 
ATOM     12  C   UNL d   1      -2.270   2.581   0.159  0.00  0.00     0.036 A 
ATOM     13  C   UNL d   1      -3.158   1.965  -0.726  0.00  0.00     0.025 A 
ATOM     14  C   UNL d   1      -2.886   0.683  -1.211  0.00  0.00     0.023 A 
ATOM     15 CL   UNL d   1      -2.607   4.190   0.759  0.00  0.00    -0.084 Cl
ENDROOT
BRANCH   1  16
ATOM     16  C   UNL d   1       1.410   0.539   1.220  0.00  0.00     0.131 C 
BRANCH  16  17
ATOM     17  C   UNL d   1       2.578   0.469   0.250  0.00  0.00     0.050 C 
BRANCH  17  18
ATOM     18  C   UNL d   1       2.311   1.346  -0.961  0.00  0.00     0.273 C 
BRANCH  18  19
ATOM     19  N   UNL d   1       3.409   1.233  -1.904  0.00  0.00     0.080 N 
ATOM     20  C   UNL d   1       4.253   2.400  -1.715  0.00  0.00     0.309 C 
ATOM     21  C   UNL d   1       2.831   1.352  -3.230  0.00  0.00     0.309 C 
ENDBRANCH  18  19
ENDBRANCH  17  18
ENDBRANCH  16  17
ENDBRANCH   1  16
TORSDOF 4
