REMARK  7 active torsions:
REMARK  status: ('A' for Active; 'I' for Inactive)
REMARK    1  A    between atoms: C_6  and  C_7 
REMARK    2  A    between atoms: C_7  and  O_8 
REMARK    3  A    between atoms: O_8  and  C_9 
REMARK    4  A    between atoms: C_9  and  C_11 
REMARK    5  A    between atoms: C_11  and  C_12 
REMARK    6  A    between atoms: C_11  and  C_18 
REMARK    7  A    between atoms: C_11  and  O_24 
ROOT
ATOM      1  C   UNL d   1      -1.206   0.235   0.774  0.00  0.00     0.176 C 
ENDROOT
BRANCH   1   2
ATOM      2  C   UNL d   1       0.269   0.549   0.818  0.00  0.00     0.299 C 
ATOM      3  O   UNL d   1       0.747   1.455   0.079  0.00  0.00    -0.261 OA
BRANCH   2   4
ATOM      4  O   UNL d   1       1.114  -0.227   1.618  0.00  0.00    -0.311 OA
BRANCH   4   5
ATOM      5  C   UNL d   1       2.531  -0.120   1.561  0.00  0.00     0.254 C 
BRANCH   5   6
ATOM      6  C   UNL d   1       3.050  -0.768   0.315  0.00  0.00     0.099 C 
ATOM      7  N   UNL d   1       3.807  -0.011  -0.650  0.00  0.00    -0.373 N 
ATOM      8  C   UNL d   1       4.062   1.407  -0.461  0.00  0.00     0.150 C 
ATOM      9  C   UNL d   1       4.299  -0.645  -1.871  0.00  0.00     0.125 C 
ATOM     10  C   UNL d   1       4.568  -2.124  -1.626  0.00  0.00     0.039 C 
ATOM     11  C   UNL d   1       3.303  -2.754  -1.056  0.00  0.00     0.122 C 
ATOM     12  N   UNL d   1       2.865  -2.045   0.145  0.00  0.00    -0.378 N 
ATOM     13  HN  UNL d   1       2.395  -2.573   0.881  1.00  0.00     0.160 HD
ENDBRANCH   5   6
ENDBRANCH   4   5
ENDBRANCH   2   4
ENDBRANCH   1   2
BRANCH   1  14
ATOM     14  C   UNL d   1      -1.436  -0.722  -0.382  0.00  0.00    -0.014 A 
ATOM     15  C   UNL d   1      -1.401  -0.256  -1.709  0.00  0.00     0.011 A 
ATOM     16  C   UNL d   1      -1.562  -1.141  -2.778  0.00  0.00     0.001 A 
ATOM     17  C   UNL d   1      -1.746  -2.504  -2.534  0.00  0.00     0.000 A 
ATOM     18  C   UNL d   1      -1.766  -2.983  -1.222  0.00  0.00     0.001 A 
ATOM     19  C   UNL d   1      -1.606  -2.098  -0.152  0.00  0.00     0.011 A 
ENDBRANCH   1  14
BRANCH   1  20
ATOM     20  C   UNL d   1      -2.045   1.524   0.605  0.00  0.00     0.035 C 
ATOM     21  C   UNL d   1      -1.776   2.546   1.730  0.00  0.00     0.008 C 
ATOM     22  C   UNL d   1      -2.926   3.538   1.947  0.00  0.00     0.001 C 
ATOM     23  C   UNL d   1      -3.693   3.789   0.652  0.00  0.00     0.000 C 
ATOM     24  C   UNL d   1      -4.335   2.498   0.127  0.00  0.00     0.001 C 
ATOM     25  C   UNL d   1      -3.545   1.232   0.483  0.00  0.00     0.008 C 
ENDBRANCH   1  20
BRANCH   1  26
ATOM     26  O   UNL d   1      -1.572  -0.377   1.981  0.00  0.00    -0.374 OA
ATOM     27  HO  UNL d   1      -2.501  -0.575   1.953  1.00  0.00     0.211 HD
ENDBRANCH   1  26
TORSDOF 7
