REMARK  Name = fda_5833
REMARK  3 active torsions:
REMARK  status: ('A' for Active; 'I' for Inactive)
REMARK    1  A    between atoms: N_2  and  C_3
REMARK    2  A    between atoms: C_3  and  C_4
REMARK    3  A    between atoms: C_4  and  C_5
REMARK                            x       y       z     vdW  Elec       q    Type
REMARK                         _______ _______ _______ _____ _____    ______ ____
ROOT
ATOM      1  C   UNL A   1      -0.403  -0.516   0.354  0.00  0.00    +0.060 A 
ATOM      2  N   UNL A   1      -0.924  -0.332  -0.890  0.00  0.00    -0.248 NA
ATOM      3  C   UNL A   1      -1.960   0.522  -1.109  0.00  0.00    +0.098 A 
ATOM      4  C   UNL A   1      -2.514   1.238  -0.046  0.00  0.00    +0.021 A 
ATOM      5  C   UNL A   1      -1.991   1.068   1.237  0.00  0.00    +0.003 A 
ATOM      6  C   UNL A   1      -0.927   0.188   1.443  0.00  0.00    +0.015 A 
ENDROOT
BRANCH   1   7
ATOM      7  C   UNL A   1       0.747  -1.446   0.551  0.00  0.00    +0.065 C 
BRANCH   7   8
ATOM      8  C   UNL A   1       2.069  -0.707   0.424  0.00  0.00    +0.095 C 
BRANCH   8  10
ATOM      9  C   UNL A   1       3.578   0.357  -0.997  0.00  0.00    +0.107 C 
ATOM     10  N   UNL A   1       2.324  -0.372  -0.967  0.00  0.00    -0.216 NA
ENDBRANCH   8  10
ENDBRANCH   7   8
ENDBRANCH   1   7
TORSDOF 3
