REMARK  1 active torsions:
REMARK  status: ('A' for Active; 'I' for Inactive)
REMARK    1  A    between atoms: C_12  and  N_9 
ROOT
ATOM      1  C   UNL d   1      -4.657   0.892   0.010  0.00  0.00     0.001 A 
ATOM      2  C   UNL d   1      -4.544  -0.181  -0.900  0.00  0.00     0.001 A 
ATOM      3  C   UNL d   1      -3.295  -0.773  -1.158  0.00  0.00     0.018 A 
ATOM      4  C   UNL d   1      -2.187  -0.266  -0.483  0.00  0.00     0.048 A 
ATOM      5  C   UNL d   1      -2.297   0.783   0.407  0.00  0.00     0.048 A 
ATOM      6  C   UNL d   1      -3.523   1.388   0.676  0.00  0.00     0.018 A 
ATOM      7  C   UNL d   1      -0.963   1.072   0.918  0.00  0.00     0.262 A 
ATOM      8  O   UNL d   1      -0.668   1.993   1.724  0.00  0.00    -0.267 OA
ATOM      9  N   UNL d   1      -0.015   0.166   0.352  0.00  0.00    -0.266 N 
ATOM     10  C   UNL d   1      -0.781  -0.649  -0.542  0.00  0.00     0.262 A 
ATOM     11  O   UNL d   1      -0.295  -1.543  -1.284  0.00  0.00    -0.267 OA
ENDROOT
BRANCH   9  12
ATOM     12  C   UNL d   1       1.438   0.310   0.403  0.00  0.00     0.189 C 
ATOM     13  C   UNL d   1       2.109  -1.006   0.707  0.00  0.00     0.247 C 
ATOM     14  N   UNL d   1       3.402  -1.292   0.168  0.00  0.00    -0.296 N 
ATOM     15  O   UNL d   1       1.566  -1.831   1.488  0.00  0.00    -0.271 OA
ATOM     16  C   UNL d   1       4.078  -0.344  -0.662  0.00  0.00     0.224 C 
ATOM     17  HN  UNL d   1       3.849  -2.185   0.379  1.00  0.00     0.171 HD
ATOM     18  C   UNL d   1       3.474   1.002  -0.911  0.00  0.00     0.106 C 
ATOM     19  O   UNL d   1       5.205  -0.625  -1.144  0.00  0.00    -0.273 OA
ATOM     20  C   UNL d   1       1.952   0.903  -0.911  0.00  0.00     0.045 C 
ENDBRANCH   9  12
TORSDOF 1
