REMARK  4 active torsions:
REMARK  status: ('A' for Active; 'I' for Inactive)
REMARK    1  A    between atoms: C_5  and  O_25 
REMARK    2  A    between atoms: C_11  and  O_23 
REMARK    3  A    between atoms: C_19  and  C_20 
REMARK    4  A    between atoms: C_19  and  N_27 
ROOT
ATOM      1  C   UNL d   1      -2.738  -2.191  -3.067  0.00  0.00     0.017 C 
ATOM      2  C   UNL d   1      -1.679  -1.730  -2.407  0.00  0.00    -0.059 C 
ATOM      3  C   UNL d   1      -0.421  -2.577  -2.405  0.00  0.00     0.039 C 
ATOM      4  C   UNL d   1       0.805  -1.913  -1.756  0.00  0.00     0.045 C 
ATOM      5  C   UNL d   1       0.393  -1.127  -0.514  0.00  0.00     0.104 C 
ATOM      6  C   UNL d   1       1.558  -0.458   0.267  0.00  0.00     0.262 C 
ATOM      7  C   UNL d   1       1.039   0.377   1.507  0.00  0.00     0.078 C 
ATOM      8  C   UNL d   1      -0.436   0.730   1.464  0.00  0.00    -0.046 C 
ATOM      9  C   UNL d   1      -1.185   1.001   2.621  0.00  0.00     0.011 C 
ATOM     10  C   UNL d   1      -2.598   1.021   2.555  0.00  0.00     0.040 C 
ATOM     11  C   UNL d   1      -3.258   0.704   1.350  0.00  0.00     0.099 C 
ATOM     12  C   UNL d   1      -2.479   0.429   0.225  0.00  0.00     0.110 A 
ATOM     13  C   UNL d   1      -1.127   0.565   0.268  0.00  0.00    -0.001 A 
ATOM     14  C   UNL d   1      -0.509   0.045  -0.958  0.00  0.00     0.055 A 
ATOM     15  C   UNL d   1      -1.736  -0.333  -1.823  0.00  0.00     0.173 A 
ATOM     16  O   UNL d   1      -2.882  -0.114  -0.984  0.00  0.00    -0.337 OA
ATOM     17  C   UNL d   1       0.263   1.209  -1.609  0.00  0.00     0.051 C 
ATOM     18  C   UNL d   1       1.764   0.949  -1.800  0.00  0.00     0.274 C 
ATOM     19  N   UNL d   1       2.435   0.323  -0.646  0.00  0.00     0.096 N 
ENDROOT
BRANCH  19  20
ATOM     20  C   UNL d   1       3.235   1.333   0.042  0.00  0.00     0.277 C 
BRANCH  20  21
ATOM     21  C   UNL d   1       4.561   0.737   0.470  0.00  0.00     0.014 A 
ATOM     22  C   UNL d   1       5.322   1.762   1.284  0.00  0.00     0.007 A 
ATOM     23  C   UNL d   1       4.596   0.632   1.980  0.00  0.00     0.007 A 
ENDBRANCH  20  21
ENDBRANCH  19  20
BRANCH   5  24
ATOM     24  O   UNL d   1      -0.278  -2.007   0.351  0.00  0.00    -0.386 OA
ATOM     25  HO  UNL d   1      -0.535  -1.518   1.124  1.00  0.00     0.210 HD
ENDBRANCH   5  24
BRANCH  11  26
ATOM     26  O   UNL d   1      -4.644   0.633   1.296  0.00  0.00    -0.358 OA
ATOM     27  HO  UNL d   1      -5.088   0.419   0.484  1.00  0.00     0.217 HD
ENDBRANCH  11  26
TORSDOF 4
