REMARK  22 active torsions:
REMARK  status: ('A' for Active; 'I' for Inactive)
REMARK    1  A    between atoms: N_1  and  C_5 
REMARK    2  A    between atoms: C_5  and  C_6 
REMARK    3  A    between atoms: C_7  and  C_6 
REMARK    4  A    between atoms: C_7  and  O_8 
REMARK    5  A    between atoms: C_7  and  C_10 
REMARK       I    between atoms: C_10  and  N_12 
REMARK    6  A    between atoms: C_14  and  N_12 
REMARK    7  A    between atoms: C_16  and  N_17 
REMARK    8  A    between atoms: C_21  and  O_22 
REMARK    9  A    between atoms: C_23  and  O_22 
REMARK   10  A    between atoms: C_25  and  C_26 
REMARK   11  A    between atoms: C_26  and  N_27 
REMARK   12  A    between atoms: C_31  and  O_32 
REMARK   13  A    between atoms: C_34  and  O_35 
REMARK   14  A    between atoms: C_37  and  O_38 
REMARK   15  A    between atoms: C_40  and  O_41 
REMARK   16  A    between atoms: C_43  and  O_44 
REMARK   17  A    between atoms: C_45  and  O_44 
REMARK   18  A    between atoms: C_47  and  C_48 
REMARK   19  A    between atoms: C_48  and  O_49 
REMARK   20  A    between atoms: C_51  and  O_52 
REMARK   21  A    between atoms: C_54  and  N_55 
REMARK   22  A    between atoms: C_59  and  O_60 
ROOT
ATOM      1  C   UNL d   1      -1.280   1.682   1.215  0.00  0.00     0.118 C 
ATOM      2  C   UNL d   1      -0.353   1.659   2.436  0.00  0.00     0.063 C 
ATOM      3  C   UNL d   1       0.471   0.377   2.475  0.00  0.00     0.217 C 
ATOM      4  C   UNL d   1       1.403   0.274   1.259  0.00  0.00     0.186 C 
ATOM      5  C   UNL d   1       0.849   0.952  -0.008  0.00  0.00     0.180 C 
ATOM      6  C   UNL d   1      -0.686   0.988  -0.028  0.00  0.00     0.178 C 
ENDROOT
BRANCH   4   7
ATOM      7  O   UNL d   1       1.679  -1.070   0.992  0.00  0.00    -0.349 OA
BRANCH   7   8
ATOM      8  C   UNL d   1       3.075  -1.154   0.965  0.00  0.00     0.292 C 
ATOM      9  O   UNL d   1       3.517  -2.179   1.824  0.00  0.00    -0.349 OA
ATOM     10  C   UNL d   1       4.900  -1.997   2.088  0.00  0.00     0.181 C 
ATOM     11  C   UNL d   1       5.752  -1.556   0.874  0.00  0.00     0.180 C 
ATOM     12  C   UNL d   1       5.043  -1.895  -0.441  0.00  0.00     0.183 C 
ATOM     13  C   UNL d   1       3.597  -1.389  -0.464  0.00  0.00     0.204 C 
BRANCH  10  14
ATOM     14  C   UNL d   1       5.142  -1.129   3.324  0.00  0.00     0.264 C 
BRANCH  14  15
ATOM     15  N   UNL d   1       4.769   0.256   3.069  0.00  0.00    -0.077 N 
ATOM     16  HN3 UNL d   1       5.246   0.629   2.248  1.00  0.00     0.274 HD
ATOM     17  HN2 UNL d   1       3.808   0.332   2.738  1.00  0.00     0.274 HD
ATOM     18  HN1 UNL d   1       4.930   0.834   3.893  1.00  0.00     0.274 HD
ENDBRANCH  14  15
ENDBRANCH  10  14
BRANCH  11  19
ATOM     19  O   UNL d   1       6.996  -2.185   0.922  0.00  0.00    -0.390 OA
ATOM     20  HO  UNL d   1       7.518  -1.914   0.177  1.00  0.00     0.210 HD
ENDBRANCH  11  19
BRANCH  12  21
ATOM     21  O   UNL d   1       5.747  -1.353  -1.519  0.00  0.00    -0.390 OA
ATOM     22  HO  UNL d   1       5.307  -1.563  -2.334  1.00  0.00     0.210 HD
ENDBRANCH  12  21
BRANCH  13  23
ATOM     23  O   UNL d   1       2.800  -2.327  -1.126  0.00  0.00    -0.388 OA
ATOM     24  HO  UNL d   1       1.903  -2.014  -1.140  1.00  0.00     0.210 HD
ENDBRANCH  13  23
ENDBRANCH   7   8
ENDBRANCH   4   7
BRANCH   3  25
ATOM     25  N   UNL d   1       1.254   0.337   3.697  0.00  0.00    -0.072 N 
ATOM     26  HN3 UNL d   1       1.833   1.169   3.810  1.00  0.00     0.274 HD
ATOM     27  HN2 UNL d   1       0.675   0.446   4.529  1.00  0.00     0.274 HD
ATOM     28  HN1 UNL d   1       1.806  -0.521   3.723  1.00  0.00     0.274 HD
ENDBRANCH   3  25
BRANCH   5  29
ATOM     29  O   UNL d   1       1.363   2.246  -0.116  0.00  0.00    -0.390 OA
ATOM     30  HO  UNL d   1       1.021   2.664  -0.898  1.00  0.00     0.210 HD
ENDBRANCH   5  29
BRANCH   6  31
ATOM     31  O   UNL d   1      -1.190  -0.314  -0.118  0.00  0.00    -0.349 OA
BRANCH  31  32
ATOM     32  C   UNL d   1      -1.763  -0.399  -1.395  0.00  0.00     0.291 C 
ATOM     33  O   UNL d   1      -1.046  -1.311  -2.208  0.00  0.00    -0.349 OA
ATOM     34  C   UNL d   1      -1.304  -2.618  -1.749  0.00  0.00     0.179 C 
ATOM     35  C   UNL d   1      -2.735  -3.049  -2.109  0.00  0.00     0.182 C 
ATOM     36  C   UNL d   1      -3.685  -1.852  -2.251  0.00  0.00     0.247 C 
ATOM     37  C   UNL d   1      -3.286  -0.690  -1.337  0.00  0.00     0.206 C 
BRANCH  34  38
ATOM     38  C   UNL d   1      -0.291  -3.567  -2.369  0.00  0.00     0.198 C 
BRANCH  38  39
ATOM     39  O   UNL d   1      -0.339  -4.808  -1.731  0.00  0.00    -0.398 OA
ATOM     40  HO  UNL d   1       0.294  -5.401  -2.118  1.00  0.00     0.209 HD
ENDBRANCH  38  39
ENDBRANCH  34  38
BRANCH  35  41
ATOM     41  O   UNL d   1      -3.218  -3.921  -1.132  0.00  0.00    -0.391 OA
ATOM     42  HO  UNL d   1      -4.103  -4.187  -1.355  1.00  0.00     0.210 HD
ENDBRANCH  35  41
BRANCH  36  43
ATOM     43  N   UNL d   1      -3.701  -1.404  -3.633  0.00  0.00    -0.070 N 
ATOM     44  HN3 UNL d   1      -2.765  -1.195  -3.981  1.00  0.00     0.274 HD
ATOM     45  HN2 UNL d   1      -3.933  -2.158  -4.280  1.00  0.00     0.274 HD
ATOM     46  HN1 UNL d   1      -4.333  -0.609  -3.728  1.00  0.00     0.274 HD
ENDBRANCH  36  43
BRANCH  37  47
ATOM     47  O   UNL d   1      -3.710  -0.951  -0.032  0.00  0.00    -0.388 OA
ATOM     48  HO  UNL d   1      -3.463  -0.230   0.535  1.00  0.00     0.210 HD
ENDBRANCH  37  47
ENDBRANCH  31  32
ENDBRANCH   6  31
BRANCH   1  49
ATOM     49  N   UNL d   1      -1.628   3.061   0.898  0.00  0.00    -0.352 N 
ATOM     50  C   UNL d   1      -2.743   3.398   0.070  0.00  0.00     0.246 C 
ATOM     51  O   UNL d   1      -3.516   2.499  -0.359  0.00  0.00    -0.271 OA
ATOM     52  HN  UNL d   1      -1.055   3.812   1.281  1.00  0.00     0.163 HD
BRANCH  50  53
ATOM     53  C   UNL d   1      -2.996   4.833  -0.265  0.00  0.00     0.211 C 
BRANCH  53  54
ATOM     54  C   UNL d   1      -4.128   5.433   0.571  0.00  0.00     0.068 C 
BRANCH  54  55
ATOM     55  C   UNL d   1      -5.488   4.805   0.290  0.00  0.00     0.232 C 
BRANCH  55  56
ATOM     56  N   UNL d   1      -6.034   5.329  -0.948  0.00  0.00    -0.079 N 
ATOM     57  HN3 UNL d   1      -6.078   6.348  -0.944  1.00  0.00     0.274 HD
ATOM     58  HN2 UNL d   1      -5.389   5.211  -1.730  1.00  0.00     0.274 HD
ATOM     59  HN1 UNL d   1      -6.944   4.909  -1.137  1.00  0.00     0.274 HD
ENDBRANCH  55  56
ENDBRANCH  54  55
ENDBRANCH  53  54
BRANCH  53  60
ATOM     60  O   UNL d   1      -3.236   4.987  -1.633  0.00  0.00    -0.386 OA
ATOM     61  HO  UNL d   1      -2.533   4.615  -2.152  1.00  0.00     0.210 HD
ENDBRANCH  53  60
ENDBRANCH  50  53
ENDBRANCH   1  49
TORSDOF 22
