REMARK  9 active torsions:
REMARK  status: ('A' for Active; 'I' for Inactive)
REMARK    1  A    between atoms: C_2  and  O_41 
REMARK    2  A    between atoms: C_7  and  O_39 
REMARK    3  A    between atoms: C_12  and  O_37 
REMARK    4  A    between atoms: C_13  and  O_35 
REMARK    5  A    between atoms: C_17  and  N_44 
REMARK    6  A    between atoms: C_18  and  O_31 
REMARK    7  A    between atoms: C_19  and  C_22 
REMARK       I    between atoms: C_22  and  N_24 
REMARK    8  A    between atoms: N_24  and  C_26 
REMARK    9  A    between atoms: C_26  and  N_43 
ROOT
ATOM      1  C   UNL d   1      -4.137  -2.313  -1.405  0.00  0.00     0.052 C 
ATOM      2  C   UNL d   1      -3.554  -0.981  -0.934  0.00  0.00     0.090 C 
ATOM      3  C   UNL d   1      -4.665   0.030  -0.693  0.00  0.00    -0.007 A 
ATOM      4  C   UNL d   1      -5.813   0.002  -1.505  0.00  0.00     0.011 A 
ATOM      5  C   UNL d   1      -6.824   0.947  -1.354  0.00  0.00     0.003 A 
ATOM      6  C   UNL d   1      -6.698   1.950  -0.399  0.00  0.00     0.037 A 
ATOM      7  C   UNL d   1      -5.559   2.024   0.404  0.00  0.00     0.080 A 
ATOM      8  C   UNL d   1      -4.518   1.075   0.258  0.00  0.00     0.057 A 
ATOM      9  C   UNL d   1      -3.272   1.162   1.068  0.00  0.00     0.194 C 
ATOM     10  O   UNL d   1      -3.074   2.158   1.817  0.00  0.00    -0.287 OA
ATOM     11  C   UNL d   1      -2.268   0.071   0.992  0.00  0.00     0.033 C 
ATOM     12  C   UNL d   1      -1.010   0.210   1.474  0.00  0.00     0.097 C 
ATOM     13  C   UNL d   1      -0.016  -0.933   1.444  0.00  0.00     0.177 C 
ATOM     14  C   UNL d   1      -0.255  -1.848   0.240  0.00  0.00     0.075 C 
ATOM     15  C   UNL d   1      -1.698  -2.348   0.239  0.00  0.00     0.024 C 
ATOM     16  C   UNL d   1      -2.745  -1.222   0.357  0.00  0.00     0.065 C 
ATOM     17  C   UNL d   1       0.119  -1.202  -1.105  0.00  0.00     0.286 C 
ATOM     18  C   UNL d   1       1.419  -0.400  -1.073  0.00  0.00     0.096 C 
ATOM     19  C   UNL d   1       2.022  -0.052   0.085  0.00  0.00     0.112 C 
ATOM     20  C   UNL d   1       1.396  -0.410   1.385  0.00  0.00     0.208 C 
ATOM     21  O   UNL d   1       2.034  -0.236   2.460  0.00  0.00    -0.288 OA
ENDROOT
BRANCH  19  22
ATOM     22  C   UNL d   1       3.304   0.702   0.084  0.00  0.00     0.259 C 
ATOM     23  O   UNL d   1       3.576   1.478   1.040  0.00  0.00    -0.267 OA
ATOM     24  N   UNL d   1       4.245   0.540  -0.984  0.00  0.00    -0.331 N 
ATOM     25  HN  UNL d   1       4.005  -0.079  -1.758  1.00  0.00     0.164 HD
BRANCH  24  26
ATOM     26  C   UNL d   1       5.530   1.224  -1.009  0.00  0.00     0.397 C 
BRANCH  26  27
ATOM     27  N   UNL d   1       6.408   0.674   0.013  0.00  0.00     0.105 N 
ATOM     28  C   UNL d   1       7.392   1.702   0.322  0.00  0.00     0.274 C 
ATOM     29  C   UNL d   1       8.740   1.032   0.403  0.00  0.00     0.032 C 
ATOM     30  C   UNL d   1       8.621  -0.131  -0.538  0.00  0.00     0.032 C 
ATOM     31  C   UNL d   1       7.139  -0.438  -0.590  0.00  0.00     0.274 C 
ENDBRANCH  26  27
ENDBRANCH  24  26
ENDBRANCH  19  22
BRANCH  18  32
ATOM     32  O   UNL d   1       1.946   0.036  -2.286  0.00  0.00    -0.362 OA
ATOM     33  HO  UNL d   1       2.754   0.535  -2.266  1.00  0.00     0.217 HD
ENDBRANCH  18  32
BRANCH  17  34
ATOM     34  N   UNL d   1       0.055  -2.214  -2.176  0.00  0.00     0.091 N 
ATOM     35  C   UNL d   1       1.274  -3.014  -2.241  0.00  0.00     0.310 C 
ATOM     36  C   UNL d   1      -0.132  -1.560  -3.462  0.00  0.00     0.310 C 
ENDBRANCH  17  34
BRANCH  13  37
ATOM     37  O   UNL d   1      -0.173  -1.687   2.612  0.00  0.00    -0.374 OA
ATOM     38  HO  UNL d   1       0.450  -2.404   2.593  1.00  0.00     0.211 HD
ENDBRANCH  13  37
BRANCH  12  39
ATOM     39  O   UNL d   1      -0.612   1.409   2.062  0.00  0.00    -0.361 OA
ATOM     40  HO  UNL d   1       0.271   1.507   2.401  1.00  0.00     0.217 HD
ENDBRANCH  12  39
BRANCH   2  41
ATOM     41  O   UNL d   1      -2.715  -0.485  -1.933  0.00  0.00    -0.385 OA
ATOM     42  HO  UNL d   1      -2.353   0.344  -1.641  1.00  0.00     0.211 HD
ENDBRANCH   2  41
BRANCH   7  43
ATOM     43  O   UNL d   1      -5.481   3.048   1.341  0.00  0.00    -0.360 OA
ATOM     44  HO  UNL d   1      -4.706   3.099   1.887  1.00  0.00     0.217 HD
ENDBRANCH   7  43
TORSDOF 9
