REMARK  6 active torsions:
REMARK  status: ('A' for Active; 'I' for Inactive)
REMARK    1  A    between atoms: C_2  and  O_4 
REMARK    2  A    between atoms: O_4  and  C_5 
REMARK    3  A    between atoms: C_5  and  C_6 
REMARK    4  A    between atoms: C_5  and  C_10 
REMARK    5  A    between atoms: C_6  and  C_7 
REMARK    6  A    between atoms: C_10  and  N_11 
ROOT
ATOM      1  C   UNL d   1      -0.226  -0.352   0.145  0.00  0.00     0.167 C 
ENDROOT
BRANCH   1   2
ATOM      2  O   UNL d   1       0.494   0.875   0.066  0.00  0.00    -0.314 OA
BRANCH   2   3
ATOM      3  C   UNL d   1       0.864   1.599   1.201  0.00  0.00     0.255 C 
ATOM      4  C   UNL d   1       1.638   2.857   1.044  0.00  0.00     0.126 C 
ATOM      5  O   UNL d   1       0.546   1.204   2.354  0.00  0.00    -0.266 OA
ENDBRANCH   2   3
ENDBRANCH   1   2
BRANCH   1   6
ATOM      6  C   UNL d   1       0.687  -1.498   0.585  0.00  0.00     0.147 C 
BRANCH   6   7
ATOM      7  C   UNL d   1       1.870  -1.665  -0.313  0.00  0.00     0.175 C 
ATOM      8  O   UNL d   1       3.016  -0.909  -0.101  0.00  0.00    -0.648 OA
ATOM      9  O   UNL d   1       1.821  -2.472  -1.276  0.00  0.00    -0.648 OA
ENDBRANCH   6   7
ENDBRANCH   1   6
BRANCH   1  10
ATOM     10  C   UNL d   1      -0.893  -0.672  -1.200  0.00  0.00     0.268 C 
BRANCH  10  11
ATOM     11  N   UNL d   1      -2.132   0.076  -1.437  0.00  0.00    -0.076 N 
ATOM     12  C   UNL d   1      -3.100  -0.150  -0.374  0.00  0.00     0.271 C 
ATOM     13  C   UNL d   1      -2.711  -0.394  -2.682  0.00  0.00     0.271 C 
ATOM     14  C   UNL d   1      -1.874   1.502  -1.569  0.00  0.00     0.271 C 
ENDBRANCH  10  11
ENDBRANCH   1  10
TORSDOF 6
