REMARK  6 active torsions:
REMARK  status: ('A' for Active; 'I' for Inactive)
REMARK    1  A    between atoms: C_2  and  O_4 
REMARK    2  A    between atoms: O_4  and  C_5 
REMARK    3  A    between atoms: C_8  and  C_11 
REMARK    4  A    between atoms: C_11  and  C_18 
REMARK    5  A    between atoms: C_21  and  O_24 
REMARK    6  A    between atoms: O_24  and  C_25 
ROOT
ATOM      1  C   UNL d   1      -0.555  -1.150  -0.220  0.00  0.00    -0.013 C 
ATOM      2  C   UNL d   1      -1.130  -2.333  -0.554  0.00  0.00    -0.068 C 
ATOM      3  C   UNL d   1      -0.311  -3.594  -0.698  0.00  0.00     0.035 C 
ATOM      4  C   UNL d   1      -1.189  -4.813  -0.976  0.00  0.00     0.004 C 
ATOM      5  C   UNL d   1      -2.119  -4.556  -2.164  0.00  0.00     0.001 C 
ATOM      6  C   UNL d   1      -2.900  -3.234  -2.061  0.00  0.00     0.004 C 
ATOM      7  C   UNL d   1      -2.616  -2.450  -0.778  0.00  0.00     0.035 C 
ENDROOT
BRANCH   1   8
ATOM      8  C   UNL d   1       0.921  -1.008  -0.115  0.00  0.00    -0.025 A 
ATOM      9  C   UNL d   1       1.482  -0.330   0.977  0.00  0.00     0.015 A 
ATOM     10  C   UNL d   1       2.865  -0.160   1.070  0.00  0.00     0.038 A 
ATOM     11  C   UNL d   1       3.713  -0.658   0.069  0.00  0.00     0.079 A 
ATOM     12  C   UNL d   1       3.153  -1.323  -1.027  0.00  0.00     0.038 A 
ATOM     13  C   UNL d   1       1.769  -1.494  -1.122  0.00  0.00     0.015 A 
BRANCH  11  14
ATOM     14  O   UNL d   1       5.109  -0.515   0.118  0.00  0.00    -0.279 OA
BRANCH  14  15
ATOM     15  C   UNL d   1       5.842   0.118   1.132  0.00  0.00     0.260 C 
ATOM     16  C   UNL d   1       7.322   0.178   1.020  0.00  0.00     0.126 C 
ATOM     17  O   UNL d   1       5.280   0.635   2.134  0.00  0.00    -0.265 OA
ENDBRANCH  14  15
ENDBRANCH  11  14
ENDBRANCH   1   8
BRANCH   1  18
ATOM     18  C   UNL d   1      -1.374   0.062   0.052  0.00  0.00    -0.025 A 
ATOM     19  C   UNL d   1      -1.008   1.292  -0.512  0.00  0.00     0.015 A 
ATOM     20  C   UNL d   1      -1.749   2.444  -0.238  0.00  0.00     0.038 A 
ATOM     21  C   UNL d   1      -2.866   2.388   0.610  0.00  0.00     0.079 A 
ATOM     22  C   UNL d   1      -3.223   1.163   1.182  0.00  0.00     0.038 A 
ATOM     23  C   UNL d   1      -2.482   0.009   0.910  0.00  0.00     0.015 A 
BRANCH  21  24
ATOM     24  O   UNL d   1      -3.643   3.516   0.913  0.00  0.00    -0.279 OA
BRANCH  24  25
ATOM     25  C   UNL d   1      -3.438   4.818   0.435  0.00  0.00     0.260 C 
ATOM     26  O   UNL d   1      -2.490   5.097  -0.347  0.00  0.00    -0.265 OA
ATOM     27  C   UNL d   1      -4.364   5.899   0.863  0.00  0.00     0.126 C 
ENDBRANCH  24  25
ENDBRANCH  21  24
ENDBRANCH   1  18
TORSDOF 6
