REMARK  10 active torsions:
REMARK  status: ('A' for Active; 'I' for Inactive)
REMARK    1  A    between atoms: C_2  and  C_3 
REMARK    2  A    between atoms: C_3  and  C_4 
REMARK    3  A    between atoms: C_4  and  C_5 
REMARK    4  A    between atoms: C_5  and  C_6 
REMARK    5  A    between atoms: C_6  and  C_7 
REMARK    6  A    between atoms: C_7  and  C_8 
REMARK    7  A    between atoms: C_8  and  C_9 
REMARK    8  A    between atoms: C_9  and  C_10 
REMARK    9  A    between atoms: C_10  and  O_12 
REMARK   10  A    between atoms: C_13  and  O_12 
ROOT
ATOM      1  C   UNL d   1       0.870  -0.461  -0.849  0.00  0.00     0.140 C 
ATOM      2  C   UNL d   1       0.729   0.269  -2.167  0.00  0.00     0.034 C 
ATOM      3  C   UNL d   1      -0.508  -0.317  -2.816  0.00  0.00     0.008 C 
ATOM      4  C   UNL d   1      -1.356  -0.912  -1.698  0.00  0.00     0.001 C 
ATOM      5  C   UNL d   1      -0.552  -0.770  -0.393  0.00  0.00    -0.013 C 
ATOM      6  C   UNL d   1      -1.119   0.347   0.501  0.00  0.00     0.012 C 
ATOM      7  C   UNL d   1      -2.600   0.145   0.838  0.00  0.00     0.006 C 
ATOM      8  C   UNL d   1      -3.426  -0.459  -0.309  0.00  0.00    -0.002 C 
ATOM      9  C   UNL d   1      -2.745  -0.255  -1.675  0.00  0.00    -0.005 C 
ATOM     10  C   UNL d   1      -3.601  -0.860  -2.782  0.00  0.00     0.010 C 
ATOM     11  C   UNL d   1      -4.940  -0.144  -2.859  0.00  0.00     0.035 C 
ATOM     12  C   UNL d   1      -5.633  -0.201  -1.538  0.00  0.00    -0.072 C 
ATOM     13  C   UNL d   1      -6.965  -0.313  -1.526  0.00  0.00     0.053 C 
ATOM     14  C   UNL d   1      -7.724  -0.248  -0.269  0.00  0.00     0.149 C 
ATOM     15  O   UNL d   1      -8.973  -0.398  -0.283  0.00  0.00    -0.293 OA
ATOM     16  C   UNL d   1      -7.024   0.058   1.018  0.00  0.00     0.084 C 
ATOM     17  C   UNL d   1      -5.586  -0.448   0.967  0.00  0.00     0.017 C 
ATOM     18  C   UNL d   1      -4.857   0.103  -0.267  0.00  0.00     0.019 C 
ATOM     19  C   UNL d   1      -0.547  -2.092   0.357  0.00  0.00     0.018 C 
ENDROOT
BRANCH   1  20
ATOM     20  O   UNL d   1       1.595   0.318   0.100  0.00  0.00    -0.315 OA
BRANCH  20  21
ATOM     21  C   UNL d   1       2.983   0.460   0.045  0.00  0.00     0.259 C 
ATOM     22  O   UNL d   1       3.660  -0.135  -0.836  0.00  0.00    -0.265 OA
BRANCH  21  23
ATOM     23  C   UNL d   1       3.674   1.292   1.065  0.00  0.00     0.111 C 
BRANCH  23  24
ATOM     24  C   UNL d   1       3.898   0.477   2.326  0.00  0.00     0.010 C 
BRANCH  24  25
ATOM     25  C   UNL d   1       4.667   1.285   3.361  0.00  0.00     0.000 C 
BRANCH  25  26
ATOM     26  C   UNL d   1       6.158   1.271   3.066  0.00  0.00     0.000 C 
BRANCH  26  27
ATOM     27  C   UNL d   1       6.516   2.368   2.079  0.00  0.00     0.000 C 
BRANCH  27  28
ATOM     28  C   UNL d   1       7.968   2.241   1.648  0.00  0.00     0.000 C 
BRANCH  28  29
ATOM     29  C   UNL d   1       8.107   1.304   0.454  0.00  0.00    -0.000 C 
BRANCH  29  30
ATOM     30  C   UNL d   1       8.028  -0.158   0.869  0.00  0.00    -0.005 C 
ATOM     31  C   UNL d   1       9.304  -0.579   1.572  0.00  0.00     0.005 C 
ENDBRANCH  29  30
ENDBRANCH  28  29
ENDBRANCH  27  28
ENDBRANCH  26  27
ENDBRANCH  25  26
ENDBRANCH  24  25
ENDBRANCH  23  24
ENDBRANCH  21  23
ENDBRANCH  20  21
ENDBRANCH   1  20
TORSDOF 10
