REMARK  8 active torsions:
REMARK  status: ('A' for Active; 'I' for Inactive)
REMARK    1  A    between atoms: C_2  and  C_3 
REMARK    2  A    between atoms: C_3  and  C_4 
REMARK    3  A    between atoms: C_4  and  C_5 
REMARK    4  A    between atoms: C_5  and  C_6 
REMARK    5  A    between atoms: C_6  and  C_7 
REMARK    6  A    between atoms: C_7  and  O_9 
REMARK    7  A    between atoms: C_10  and  O_9 
REMARK    8  A    between atoms: C_25  and  O_27 
ROOT
ATOM      1  C   UNL d   1       1.806   2.034  -0.846  0.00  0.00     0.140 C 
ATOM      2  C   UNL d   1       1.188   2.498  -2.152  0.00  0.00     0.034 C 
ATOM      3  C   UNL d   1      -0.290   2.214  -2.014  0.00  0.00     0.008 C 
ATOM      4  C   UNL d   1      -0.395   1.005  -1.102  0.00  0.00     0.001 C 
ATOM      5  C   UNL d   1       0.858   1.012  -0.203  0.00  0.00    -0.013 C 
ATOM      6  C   UNL d   1       0.544   1.490   1.224  0.00  0.00     0.013 C 
ATOM      7  C   UNL d   1      -0.592   0.707   1.902  0.00  0.00     0.010 C 
ATOM      8  C   UNL d   1      -1.624   0.142   0.914  0.00  0.00     0.023 C 
ATOM      9  C   UNL d   1      -1.722   1.027  -0.335  0.00  0.00    -0.001 C 
ATOM     10  C   UNL d   1      -2.865   0.557  -1.224  0.00  0.00     0.010 C 
ATOM     11  C   UNL d   1      -4.184   0.759  -0.489  0.00  0.00     0.039 C 
ATOM     12  C   UNL d   1      -4.172   0.114   0.867  0.00  0.00    -0.049 A 
ATOM     13  C   UNL d   1      -2.965  -0.115   1.569  0.00  0.00    -0.047 A 
ATOM     14  C   UNL d   1      -3.017  -0.716   2.836  0.00  0.00     0.011 A 
ATOM     15  C   UNL d   1      -4.244  -1.034   3.422  0.00  0.00     0.037 A 
ATOM     16  C   UNL d   1      -5.433  -0.769   2.741  0.00  0.00     0.066 A 
ATOM     17  C   UNL d   1      -5.396  -0.197   1.468  0.00  0.00     0.044 A 
ATOM     18  C   UNL d   1       1.442  -0.395  -0.150  0.00  0.00     0.018 C 
ENDROOT
BRANCH   1  19
ATOM     19  O   UNL d   1       3.171   1.617  -0.985  0.00  0.00    -0.315 OA
BRANCH  19  20
ATOM     20  C   UNL d   1       3.652   0.749  -1.976  0.00  0.00     0.259 C 
ATOM     21  O   UNL d   1       2.872   0.211  -2.807  0.00  0.00    -0.265 OA
BRANCH  20  22
ATOM     22  C   UNL d   1       5.110   0.452  -2.038  0.00  0.00     0.111 C 
BRANCH  22  23
ATOM     23  C   UNL d   1       5.495  -0.613  -1.022  0.00  0.00     0.010 C 
BRANCH  23  24
ATOM     24  C   UNL d   1       5.379  -2.006  -1.623  0.00  0.00     0.000 C 
BRANCH  24  25
ATOM     25  C   UNL d   1       3.965  -2.554  -1.487  0.00  0.00    -0.000 C 
BRANCH  25  26
ATOM     26  C   UNL d   1       3.681  -2.994  -0.059  0.00  0.00    -0.005 C 
ATOM     27  C   UNL d   1       4.389  -4.301   0.244  0.00  0.00     0.005 C 
ENDBRANCH  25  26
ENDBRANCH  24  25
ENDBRANCH  23  24
ENDBRANCH  22  23
ENDBRANCH  20  22
ENDBRANCH  19  20
ENDBRANCH   1  19
BRANCH  16  28
ATOM     28  O   UNL d   1      -6.652  -1.077   3.328  0.00  0.00    -0.361 OA
ATOM     29  HO  UNL d   1      -7.462  -0.897   2.864  1.00  0.00     0.217 HD
ENDBRANCH  16  28
TORSDOF 8
