REMARK  13 active torsions:
REMARK  status: ('A' for Active; 'I' for Inactive)
REMARK    1  A    between atoms: O_2  and  C_3 
REMARK    2  A    between atoms: C_5  and  N_6 
REMARK    3  A    between atoms: N_6  and  C_8 
REMARK    4  A    between atoms: C_8  and  C_9 
REMARK    5  A    between atoms: C_9  and  N_10 
REMARK    6  A    between atoms: C_13  and  N_14 
REMARK       I    between atoms: N_14  and  C_16 
REMARK    7  A    between atoms: C_16  and  C_18 
REMARK    8  A    between atoms: C_21  and  N_22 
REMARK    9  A    between atoms: N_22  and  C_24 
REMARK   10  A    between atoms: C_28  and  C_29 
REMARK   11  A    between atoms: C_29  and  O_31 
REMARK   12  A    between atoms: O_31  and  C_32 
REMARK   13  A    between atoms: C_35  and  C_38 
ROOT
ATOM      1  C   UNL d   1      -0.441  -0.104   1.154  0.00  0.00     0.683 A 
ATOM      2  N   UNL d   1      -0.308   0.991   0.360  0.00  0.00    -0.201 N 
ATOM      3  HN  UNL d   1       0.614   1.403   0.220  1.00  0.00     0.183 HD
ATOM      4  C   UNL d   1      -1.389   1.544  -0.250  0.00  0.00     0.126 A 
ATOM      5  C   UNL d   1      -2.664   0.999  -0.072  0.00  0.00     0.083 A 
ATOM      6  C   UNL d   1      -2.783  -0.135   0.768  0.00  0.00     0.079 A 
ATOM      7  N   UNL d   1      -1.669  -0.644   1.358  0.00  0.00    -0.190 N 
ATOM      8  HN  UNL d   1      -1.759  -1.455   1.970  1.00  0.00     0.184 HD
ENDROOT
BRANCH   1   9
ATOM      9  N   UNL d   1       0.681  -0.645   1.855  0.00  0.00    -0.189 N 
ATOM     10  HN  UNL d   1       0.497  -1.184   2.701  1.00  0.00     0.184 HD
BRANCH   9  11
ATOM     11  C   UNL d   1       2.046  -0.485   1.453  0.00  0.00     0.084 A 
ATOM     12  C   UNL d   1       2.388  -0.423   0.101  0.00  0.00     0.065 A 
ATOM     13  C   UNL d   1       3.726  -0.327  -0.307  0.00  0.00     0.064 A 
ATOM     14  C   UNL d   1       4.748  -0.269   0.671  0.00  0.00     0.059 A 
ATOM     15  C   UNL d   1       4.391  -0.363   2.023  0.00  0.00     0.070 A 
ATOM     16  C   UNL d   1       3.054  -0.482   2.423  0.00  0.00     0.097 A 
BRANCH  13  17
ATOM     17  N   UNL d   1       4.062  -0.347  -1.706  0.00  0.00    -0.322 N 
ATOM     18  C   UNL d   1       3.188  -0.617  -2.808  0.00  0.00     0.244 C 
ATOM     19  O   UNL d   1       1.964  -0.860  -2.621  0.00  0.00    -0.268 OA
ATOM     20  HN  UNL d   1       5.034  -0.147  -1.940  1.00  0.00     0.169 HD
BRANCH  18  21
ATOM     21  C   UNL d   1       3.752  -0.646  -4.164  0.00  0.00     0.064 C 
ATOM     22  C   UNL d   1       3.035  -1.002  -5.222  0.00  0.00     0.017 C 
ENDBRANCH  18  21
ENDBRANCH  13  17
BRANCH  14  23
ATOM     23  N   UNL d   1       6.142  -0.108   0.326  0.00  0.00    -0.382 N 
ATOM     24  C   UNL d   1       7.177  -0.566   1.234  0.00  0.00     0.150 C 
BRANCH  23  25
ATOM     25  C   UNL d   1       6.587   0.606  -0.864  0.00  0.00     0.152 C 
BRANCH  25  26
ATOM     26  C   UNL d   1       6.117   2.052  -0.824  0.00  0.00     0.291 C 
BRANCH  26  27
ATOM     27  N   UNL d   1       6.601   2.768  -1.991  0.00  0.00     0.081 N 
ATOM     28  C   UNL d   1       7.778   3.511  -1.573  0.00  0.00     0.309 C 
ATOM     29  C   UNL d   1       5.583   3.747  -2.339  0.00  0.00     0.309 C 
ENDBRANCH  26  27
ENDBRANCH  25  26
ENDBRANCH  23  25
ENDBRANCH  14  23
BRANCH  16  30
ATOM     30  O   UNL d   1       2.699  -0.553   3.770  0.00  0.00    -0.354 OA
ATOM     31  C   UNL d   1       3.650  -0.437   4.823  0.00  0.00     0.210 C 
ENDBRANCH  16  30
ENDBRANCH   9  11
ENDBRANCH   1   9
BRANCH   6  32
ATOM     32  C   UNL d   1      -4.077  -0.770   1.086  0.00  0.00     0.020 A 
ATOM     33  C   UNL d   1      -5.252  -0.120   1.470  0.00  0.00     0.105 A 
ATOM     34  N   UNL d   1      -6.187  -1.046   1.776  0.00  0.00    -0.360 N 
ATOM     35  C   UNL d   1      -7.539  -0.772   2.226  0.00  0.00     0.156 C 
ATOM     36  C   UNL d   1      -5.622  -2.255   1.608  0.00  0.00     0.045 A 
ATOM     37  C   UNL d   1      -6.205  -3.510   1.797  0.00  0.00     0.030 A 
ATOM     38  C   UNL d   1      -4.324  -2.120   1.196  0.00  0.00     0.005 A 
ATOM     39  C   UNL d   1      -5.412  -4.640   1.548  0.00  0.00     0.002 A 
ATOM     40  C   UNL d   1      -4.074  -4.499   1.119  0.00  0.00     0.001 A 
ATOM     41  C   UNL d   1      -3.513  -3.226   0.933  0.00  0.00     0.014 A 
ENDBRANCH   6  32
BRANCH   5  42
ATOM     42  C   UNL d   1      -3.787   1.597  -0.823  0.00  0.00     0.297 C 
ATOM     43  O   UNL d   1      -4.718   0.867  -1.260  0.00  0.00    -0.259 OA
BRANCH  42  44
ATOM     44  O   UNL d   1      -3.773   2.973  -1.102  0.00  0.00    -0.313 OA
BRANCH  44  45
ATOM     45  C   UNL d   1      -4.744   3.646  -1.905  0.00  0.00     0.124 C 
ATOM     46  C   UNL d   1      -4.757   3.106  -3.325  0.00  0.00     0.040 C 
ATOM     47  C   UNL d   1      -6.131   3.564  -1.288  0.00  0.00     0.040 C 
ENDBRANCH  44  45
ENDBRANCH  42  44
ENDBRANCH   5  42
TORSDOF 13
