REMARK  1 active torsions:
REMARK  status: ('A' for Active; 'I' for Inactive)
REMARK    1  A    between atoms: C_2  and  C_10 
ROOT
ATOM      1  C   UNL d   1       0.454  -2.156   0.939  0.00  0.00     0.031 C 
ATOM      2  C   UNL d   1       0.335  -0.720   0.441  0.00  0.00     0.073 A 
ATOM      3  C   UNL d   1       0.912   0.236   1.506  0.00  0.00     0.127 A 
ATOM      4  C   UNL d   1       2.085   0.867   0.833  0.00  0.00     0.227 A 
ATOM      5  O   UNL d   1       2.827   1.726   1.377  0.00  0.00    -0.273 OA
ATOM      6  N   UNL d   1       2.280   0.401  -0.486  0.00  0.00    -0.292 N 
ATOM      7  C   UNL d   1       1.253  -0.536  -0.736  0.00  0.00     0.239 A 
ATOM      8  O   UNL d   1       1.133  -1.145  -1.834  0.00  0.00    -0.272 OA
ATOM      9  C   UNL d   1       3.306   0.836  -1.419  0.00  0.00     0.162 C 
ENDROOT
BRANCH   2  10
ATOM     10  C   UNL d   1      -1.099  -0.335   0.128  0.00  0.00    -0.040 A 
ATOM     11  C   UNL d   1      -1.381   0.698  -0.786  0.00  0.00     0.008 A 
ATOM     12  C   UNL d   1      -2.699   1.097  -1.027  0.00  0.00     0.001 A 
ATOM     13  C   UNL d   1      -3.751   0.482  -0.345  0.00  0.00     0.000 A 
ATOM     14  C   UNL d   1      -3.486  -0.526   0.584  0.00  0.00     0.001 A 
ATOM     15  C   UNL d   1      -2.168  -0.926   0.825  0.00  0.00     0.008 A 
ENDBRANCH   2  10
TORSDOF 1
