REMARK  12 active torsions:
REMARK  status: ('A' for Active; 'I' for Inactive)
REMARK    1  A    between atoms: C_2  and  C_3 
REMARK    2  A    between atoms: C_3  and  C_4 
REMARK    3  A    between atoms: C_4  and  O_5 
REMARK    4  A    between atoms: O_5  and  C_6 
REMARK    5  A    between atoms: C_9  and  C_12 
REMARK    6  A    between atoms: N_13  and  C_12 
REMARK    7  A    between atoms: C_19  and  O_21 
REMARK    8  A    between atoms: O_21  and  C_22 
REMARK    9  A    between atoms: C_22  and  C_24 
REMARK   10  A    between atoms: C_24  and  C_25 
REMARK   11  A    between atoms: C_24  and  C_28 
REMARK   12  A    between atoms: C_25  and  O_26 
ROOT
ATOM      1  N   UNL d   1      -0.785  -1.083   0.310  0.00  0.00    -0.058 N 
ATOM      2  C   UNL d   1      -0.491   0.358   0.223  0.00  0.00     0.193 C 
ATOM      3  C   UNL d   1       0.267   0.693   1.504  0.00  0.00     0.036 C 
ATOM      4  C   UNL d   1       0.914  -0.623   1.917  0.00  0.00     0.036 C 
ATOM      5  C   UNL d   1       0.480  -1.615   0.841  0.00  0.00     0.193 C 
ATOM      6  C   UNL d   1       1.597  -1.608  -0.228  0.00  0.00     0.066 C 
ATOM      7  C   UNL d   1       1.485  -0.450  -1.247  0.00  0.00     0.136 C 
ATOM      8  C   UNL d   1       0.467   0.674  -0.947  0.00  0.00     0.066 C 
ATOM      9  C   UNL d   1      -1.172  -1.700  -0.965  0.00  0.00     0.273 C 
ENDROOT
BRANCH   1  10
ATOM     10  C   UNL d   1      -1.855  -1.368   1.288  0.00  0.00     0.276 C 
BRANCH  10  11
ATOM     11  C   UNL d   1      -3.146  -0.650   1.005  0.00  0.00    -0.032 A 
ATOM     12  C   UNL d   1      -3.390   0.604   1.576  0.00  0.00     0.011 A 
ATOM     13  C   UNL d   1      -4.589   1.272   1.315  0.00  0.00     0.037 A 
ATOM     14  C   UNL d   1      -5.556   0.693   0.486  0.00  0.00     0.068 A 
ATOM     15  C   UNL d   1      -5.309  -0.567  -0.084  0.00  0.00     0.037 A 
ATOM     16  C   UNL d   1      -4.109  -1.235   0.176  0.00  0.00     0.011 A 
BRANCH  14  17
ATOM     17  O   UNL d   1      -6.744   1.389   0.242  0.00  0.00    -0.351 OA
BRANCH  17  18
ATOM     18  C   UNL d   1      -7.817   0.851  -0.523  0.00  0.00     0.175 C 
BRANCH  18  19
ATOM     19  C   UNL d   1      -8.894   0.294   0.393  0.00  0.00     0.026 C 
BRANCH  19  20
ATOM     20  C   UNL d   1      -8.433  -0.997   1.041  0.00  0.00    -0.002 C 
ATOM     21  C   UNL d   1      -9.520  -1.519   1.956  0.00  0.00     0.005 C 
ENDBRANCH  19  20
ENDBRANCH  18  19
ENDBRANCH  17  18
ENDBRANCH  14  17
ENDBRANCH  10  11
ENDBRANCH   1  10
BRANCH   7  22
ATOM     22  O   UNL d   1       2.761   0.062  -1.625  0.00  0.00    -0.315 OA
BRANCH  22  23
ATOM     23  C   UNL d   1       3.608   0.758  -0.757  0.00  0.00     0.270 C 
ATOM     24  O   UNL d   1       3.273   0.975   0.440  0.00  0.00    -0.264 OA
BRANCH  23  25
ATOM     25  C   UNL d   1       4.940   1.221  -1.262  0.00  0.00     0.142 C 
BRANCH  25  26
ATOM     26  C   UNL d   1       5.174   2.701  -0.985  0.00  0.00     0.183 C 
BRANCH  26  27
ATOM     27  O   UNL d   1       4.292   3.474  -1.740  0.00  0.00    -0.400 OA
ATOM     28  HO  UNL d   1       4.438   4.397  -1.568  1.00  0.00     0.209 HD
ENDBRANCH  26  27
ENDBRANCH  25  26
BRANCH  25  29
ATOM     29  C   UNL d   1       6.053   0.377  -0.722  0.00  0.00    -0.043 A 
ATOM     30  C   UNL d   1       6.759  -0.458  -1.596  0.00  0.00     0.008 A 
ATOM     31  C   UNL d   1       7.795  -1.264  -1.117  0.00  0.00     0.001 A 
ATOM     32  C   UNL d   1       8.129  -1.241   0.241  0.00  0.00     0.000 A 
ATOM     33  C   UNL d   1       7.426  -0.412   1.119  0.00  0.00     0.001 A 
ATOM     34  C   UNL d   1       6.390   0.395   0.641  0.00  0.00     0.008 A 
ENDBRANCH  25  29
ENDBRANCH  23  25
ENDBRANCH  22  23
ENDBRANCH   7  22
TORSDOF 12
