REMARK  4 active torsions:
REMARK  status: ('A' for Active; 'I' for Inactive)
REMARK    1  A    between atoms: C_12  and  C_13 
REMARK    2  A    between atoms: C_13  and  C_14 
REMARK    3  A    between atoms: C_14  and  N_15 
REMARK    4  A    between atoms: N_18  and  C_21 
ROOT
ATOM      1  N   UNL d   1       0.269  -0.135  -1.019  0.00  0.00     0.091 N 
ATOM      2  C   UNL d   1       1.252  -0.919  -0.273  0.00  0.00     0.292 C 
ATOM      3  C   UNL d   1       2.639  -0.724  -0.879  0.00  0.00     0.154 C 
ATOM      4  N   UNL d   1       2.953   0.703  -0.934  0.00  0.00    -0.363 N 
ATOM      5  C   UNL d   1       1.933   1.600  -1.475  0.00  0.00     0.154 C 
ATOM      6  C   UNL d   1       0.583   1.282  -0.837  0.00  0.00     0.292 C 
ENDROOT
BRANCH   1   7
ATOM      7  C   UNL d   1      -1.017  -0.370  -0.386  0.00  0.00     0.277 C 
BRANCH   7   8
ATOM      8  C   UNL d   1      -2.118  -0.335  -1.431  0.00  0.00     0.070 C 
BRANCH   8   9
ATOM      9  C   UNL d   1      -3.442  -0.588  -0.789  0.00  0.00    -0.034 A 
ATOM     10  C   UNL d   1      -4.176   0.507  -0.301  0.00  0.00     0.018 A 
ATOM     11  C   UNL d   1      -5.402   0.266   0.314  0.00  0.00    -0.022 A 
ATOM     12  C   UNL d   1      -6.342   1.259   0.898  0.00  0.00     0.144 A 
ATOM     13  C   UNL d   1      -5.894  -1.012   0.450  0.00  0.00     0.043 A 
ATOM     14  C   UNL d   1      -7.415   0.326   1.370  0.00  0.00     0.226 A 
ATOM     15  N   UNL d   1      -7.151  -1.051   1.102  0.00  0.00    -0.326 N 
ATOM     16  O   UNL d   1      -8.462   0.710   1.952  0.00  0.00    -0.273 OA
ATOM     17  HN  UNL d   1      -7.726  -1.863   1.326  1.00  0.00     0.169 HD
ATOM     18  C   UNL d   1      -5.188  -2.117  -0.018  0.00  0.00     0.054 A 
ATOM     19  C   UNL d   1      -3.948  -1.904  -0.643  0.00  0.00     0.042 A 
ATOM     20 CL   UNL d   1      -3.057  -3.299  -1.233  0.00  0.00    -0.084 Cl
ENDBRANCH   8   9
ENDBRANCH   7   8
ENDBRANCH   1   7
BRANCH   4  21
ATOM     21  C   UNL d   1       4.298   1.186  -0.763  0.00  0.00     0.121 A 
ATOM     22  N   UNL d   1       4.667   2.414  -1.232  0.00  0.00    -0.311 N 
ATOM     23  S   UNL d   1       6.272   2.607  -0.828  0.00  0.00    -0.013 SA
ATOM     24  HN  UNL d   1       4.077   3.080  -1.730  1.00  0.00     0.176 HD
ATOM     25  C   UNL d   1       6.529   1.162  -0.054  0.00  0.00     0.035 A 
ATOM     26  C   UNL d   1       7.675   0.666   0.558  0.00  0.00     0.021 A 
ATOM     27  C   UNL d   1       5.328   0.470  -0.093  0.00  0.00     0.027 A 
ATOM     28  C   UNL d   1       7.591  -0.597   1.163  0.00  0.00     0.001 A 
ATOM     29  C   UNL d   1       6.381  -1.319   1.144  0.00  0.00     0.001 A 
ATOM     30  C   UNL d   1       5.242  -0.786   0.517  0.00  0.00     0.017 A 
ENDBRANCH   4  21
TORSDOF 4
