REMARK  5 active torsions:
REMARK  status: ('A' for Active; 'I' for Inactive)
REMARK    1  A    between atoms: O_1  and  N_3 
REMARK    2  A    between atoms: C_8  and  S_9 
REMARK    3  A    between atoms: S_9  and  S_10 
REMARK    4  A    between atoms: S_10  and  C_11 
REMARK    5  A    between atoms: N_16  and  O_17 
ROOT
ATOM      1  S   UNL d   1       0.094  -1.942  -0.964  0.00  0.00    -0.030 SA
ENDROOT
BRANCH   1   2
ATOM      2  C   UNL d   1       1.310  -0.630  -1.082  0.00  0.00     0.109 A 
ATOM      3  C   UNL d   1       0.908   0.628  -1.540  0.00  0.00     0.040 A 
ATOM      4  C   UNL d   1       1.849   1.651  -1.646  0.00  0.00     0.004 A 
ATOM      5  C   UNL d   1       3.178   1.409  -1.301  0.00  0.00     0.020 A 
ATOM      6  C   UNL d   1       3.546   0.137  -0.856  0.00  0.00     0.124 A 
ATOM      7  N   UNL d   1       2.618  -0.854  -0.757  0.00  0.00    -0.229 N 
BRANCH   7   8
ATOM      8  O   UNL d   1       3.020  -2.094  -0.319  0.00  0.00    -0.282 OA
ATOM      9  HO  UNL d   1       2.373  -2.786  -0.250  1.00  0.00     0.245 HD
ENDBRANCH   7   8
ENDBRANCH   1   2
BRANCH   1  10
ATOM     10  S   UNL d   1      -0.227  -1.633   1.124  0.00  0.00    -0.030 SA
BRANCH  10  11
ATOM     11  C   UNL d   1      -1.605  -0.516   0.855  0.00  0.00     0.109 A 
ATOM     12  C   UNL d   1      -2.867  -1.049   0.578  0.00  0.00     0.040 A 
ATOM     13  C   UNL d   1      -3.944  -0.188   0.369  0.00  0.00     0.004 A 
ATOM     14  C   UNL d   1      -3.753   1.192   0.446  0.00  0.00     0.020 A 
ATOM     15  C   UNL d   1      -2.481   1.688   0.739  0.00  0.00     0.124 A 
ATOM     16  N   UNL d   1      -1.438   0.837   0.941  0.00  0.00    -0.229 N 
BRANCH  16  17
ATOM     17  O   UNL d   1      -0.209   1.365   1.261  0.00  0.00    -0.282 OA
ATOM     18  HO  UNL d   1       0.519   0.771   1.402  1.00  0.00     0.245 HD
ENDBRANCH  16  17
ENDBRANCH  10  11
ENDBRANCH   1  10
TORSDOF 5
