REMARK  1 active torsions:
REMARK  status: ('A' for Active; 'I' for Inactive)
REMARK    1  A    between atoms: C_10  and  O_12 
ROOT
ATOM      1  C   UNL d   1       1.931   1.519  -0.755  0.00  0.00     0.018 C 
ATOM      2  C   UNL d   1       2.229   0.023  -0.559  0.00  0.00    -0.009 C 
ATOM      3  C   UNL d   1       1.456  -0.802  -1.592  0.00  0.00     0.013 C 
ATOM      4  C   UNL d   1      -0.059  -0.635  -1.385  0.00  0.00     0.006 C 
ATOM      5  C   UNL d   1      -0.513  -1.018   0.045  0.00  0.00    -0.002 C 
ATOM      6  C   UNL d   1       0.329  -0.333   1.151  0.00  0.00    -0.005 C 
ATOM      7  C   UNL d   1       1.815  -0.449   0.816  0.00  0.00     0.001 C 
ATOM      8  C   UNL d   1       2.863   0.042   1.787  0.00  0.00     0.009 C 
ATOM      9  C   UNL d   1       4.141   0.090   0.944  0.00  0.00     0.038 C 
ATOM     10  C   UNL d   1       3.745  -0.241  -0.502  0.00  0.00     0.062 C 
ATOM     11  C   UNL d   1       4.556   0.598  -1.482  0.00  0.00     0.046 C 
ATOM     12  C   UNL d   1      -0.119   1.090   1.550  0.00  0.00     0.010 C 
ATOM     13  C   UNL d   1      -1.142   1.722   0.599  0.00  0.00     0.035 C 
ATOM     14  C   UNL d   1      -2.259   0.774   0.280  0.00  0.00    -0.072 C 
ATOM     15  C   UNL d   1      -3.462   1.264  -0.026  0.00  0.00     0.053 C 
ATOM     16  C   UNL d   1      -4.567   0.372  -0.415  0.00  0.00     0.149 C 
ATOM     17  O   UNL d   1      -5.699   0.856  -0.675  0.00  0.00    -0.293 OA
ATOM     18  C   UNL d   1      -4.364  -1.114  -0.464  0.00  0.00     0.084 C 
ATOM     19  C   UNL d   1      -2.898  -1.449  -0.736  0.00  0.00     0.017 C 
ATOM     20  C   UNL d   1      -2.000  -0.718   0.266  0.00  0.00     0.019 C 
ENDROOT
BRANCH  10  21
ATOM     21  O   UNL d   1       4.018  -1.592  -0.740  0.00  0.00    -0.389 OA
ATOM     22  HO  UNL d   1       4.953  -1.755  -0.705  1.00  0.00     0.210 HD
ENDBRANCH  10  21
TORSDOF 1
