REMARK  8 active torsions:
REMARK  status: ('A' for Active; 'I' for Inactive)
REMARK    1  A    between atoms: C_8  and  O_44 
REMARK    2  A    between atoms: C_9  and  O_42 
REMARK    3  A    between atoms: C_10  and  O_12 
REMARK    4  A    between atoms: C_13  and  O_12 
REMARK    5  A    between atoms: C_20  and  C_27 
REMARK    6  A    between atoms: C_29  and  O_37 
REMARK    7  A    between atoms: C_30  and  O_35 
REMARK    8  A    between atoms: C_31  and  O_33 
ROOT
ATOM      1  C   UNL d   1       1.317   0.229   0.654  0.00  0.00     0.165 C 
ATOM      2  C   UNL d   1       0.353   1.322   0.271  0.00  0.00    -0.019 A 
ATOM      3  C   UNL d   1       0.816   2.570  -0.196  0.00  0.00     0.050 A 
ATOM      4  C   UNL d   1      -0.131   3.504  -0.602  0.00  0.00     0.105 A 
ATOM      5  C   UNL d   1      -1.459   3.239  -0.578  0.00  0.00     0.105 A 
ATOM      6  C   UNL d   1      -1.960   2.017  -0.142  0.00  0.00     0.048 A 
ATOM      7  C   UNL d   1      -1.038   1.042   0.303  0.00  0.00    -0.037 A 
ATOM      8  C   UNL d   1      -1.482  -0.338   0.739  0.00  0.00     0.066 C 
ATOM      9  C   UNL d   1      -0.670  -0.845   1.950  0.00  0.00     0.107 A 
ATOM     10  C   UNL d   1       0.845  -0.512   1.913  0.00  0.00     0.058 A 
ATOM     11  C   UNL d   1       1.594  -1.848   2.038  0.00  0.00     0.187 A 
ATOM     12  O   UNL d   1       0.602  -2.857   2.063  0.00  0.00    -0.321 OA
ATOM     13  C   UNL d   1      -0.665  -2.323   2.022  0.00  0.00     0.264 A 
ATOM     14  O   UNL d   1      -1.702  -3.034   2.089  0.00  0.00    -0.265 OA
ATOM     15  O   UNL d   1      -2.157   4.335  -1.044  0.00  0.00    -0.323 OA
ATOM     16  C   UNL d   1      -1.206   5.354  -1.382  0.00  0.00     0.352 A 
ATOM     17  O   UNL d   1       0.075   4.780  -1.085  0.00  0.00    -0.323 OA
ENDROOT
BRANCH   1  18
ATOM     18  O   UNL d   1       2.606   0.736   0.859  0.00  0.00    -0.348 OA
BRANCH  18  19
ATOM     19  C   UNL d   1       3.388   0.141  -0.136  0.00  0.00     0.292 C 
ATOM     20  C   UNL d   1       4.036   1.194  -1.050  0.00  0.00     0.204 C 
ATOM     21  C   UNL d   1       5.243   0.608  -1.813  0.00  0.00     0.183 C 
ATOM     22  C   UNL d   1       5.135  -0.914  -1.937  0.00  0.00     0.187 C 
ATOM     23  C   UNL d   1       4.889  -1.558  -0.546  0.00  0.00     0.180 C 
ATOM     24  O   UNL d   1       4.081  -1.239  -2.821  0.00  0.00    -0.351 OA
ATOM     25  C   UNL d   1       4.016  -2.791  -0.724  0.00  0.00     0.205 C 
ATOM     26  O   UNL d   1       4.371  -0.683   0.445  0.00  0.00    -0.348 OA
ATOM     27  O   UNL d   1       4.412  -3.438  -1.905  0.00  0.00    -0.359 OA
ATOM     28  C   UNL d   1       4.000  -2.650  -3.012  0.00  0.00     0.256 C 
ATOM     29  C   UNL d   1       4.774  -3.055  -4.252  0.00  0.00     0.070 C 
BRANCH  20  30
ATOM     30  O   UNL d   1       4.404   2.335  -0.329  0.00  0.00    -0.388 OA
ATOM     31  HO  UNL d   1       3.661   2.696   0.141  1.00  0.00     0.210 HD
ENDBRANCH  20  30
BRANCH  21  32
ATOM     32  O   UNL d   1       6.447   0.935  -1.181  0.00  0.00    -0.390 OA
ATOM     33  HO  UNL d   1       6.513   1.879  -1.105  1.00  0.00     0.210 HD
ENDBRANCH  21  32
ENDBRANCH  18  19
ENDBRANCH   1  18
BRANCH   8  34
ATOM     34  C   UNL d   1      -2.962  -0.438   0.996  0.00  0.00    -0.043 A 
ATOM     35  C   UNL d   1      -3.546   0.170   2.114  0.00  0.00     0.047 A 
ATOM     36  C   UNL d   1      -4.929   0.083   2.331  0.00  0.00     0.104 A 
ATOM     37  C   UNL d   1      -5.728  -0.619   1.416  0.00  0.00     0.132 A 
ATOM     38  C   UNL d   1      -5.151  -1.227   0.291  0.00  0.00     0.104 A 
ATOM     39  C   UNL d   1      -3.766  -1.130   0.088  0.00  0.00     0.047 A 
BRANCH  36  40
ATOM     40  O   UNL d   1      -5.529   0.683   3.444  0.00  0.00    -0.353 OA
ATOM     41  C   UNL d   1      -4.790   1.411   4.415  0.00  0.00     0.210 C 
ENDBRANCH  36  40
BRANCH  37  42
ATOM     42  O   UNL d   1      -7.100  -0.711   1.624  0.00  0.00    -0.356 OA
ATOM     43  HO  UNL d   1      -7.491  -0.299   2.386  1.00  0.00     0.218 HD
ENDBRANCH  37  42
BRANCH  38  44
ATOM     44  O   UNL d   1      -5.970  -1.919  -0.608  0.00  0.00    -0.353 OA
ATOM     45  C   UNL d   1      -5.464  -2.560  -1.771  0.00  0.00     0.210 C 
ENDBRANCH  38  44
ENDBRANCH   8  34
TORSDOF 8
