REMARK  11 active torsions:
REMARK  status: ('A' for Active; 'I' for Inactive)
REMARK    1  A    between atoms: O_2  and  C_3 
REMARK    2  A    between atoms: C_8  and  O_9 
REMARK    3  A    between atoms: O_9  and  C_10 
REMARK    4  A    between atoms: C_10  and  C_11 
REMARK    5  A    between atoms: C_11  and  N_32 
REMARK    6  A    between atoms: C_12  and  C_13 
REMARK    7  A    between atoms: C_12  and  N_32 
REMARK    8  A    between atoms: C_13  and  C_14 
REMARK    9  A    between atoms: C_13  and  O_30 
REMARK   10  A    between atoms: C_14  and  O_15 
REMARK   11  A    between atoms: O_15  and  C_16 
ROOT
ATOM      1  C   UNL d   1      -0.430   0.528   0.335  0.00  0.00     0.168 C 
ENDROOT
BRANCH   1   2
ATOM      2  C   UNL d   1       1.072   0.666   0.128  0.00  0.00     0.266 C 
BRANCH   2   3
ATOM      3  N   UNL d   1       1.742  -0.611   0.316  0.00  0.00    -0.071 N 
ATOM      4  HN2 UNL d   1       1.324  -1.368  -0.225  1.00  0.00     0.277 HD
ATOM      5  HN1 UNL d   1       1.588  -1.015   1.240  1.00  0.00     0.277 HD
BRANCH   3   6
ATOM      6  C   UNL d   1       3.144  -0.396   0.013  0.00  0.00     0.259 C 
BRANCH   6   7
ATOM      7  C   UNL d   1       3.916  -1.680   0.253  0.00  0.00     0.203 C 
BRANCH   7   8
ATOM      8  O   UNL d   1       5.287  -1.498  -0.084  0.00  0.00    -0.347 OA
BRANCH   8   9
ATOM      9  C   UNL d   1       6.200  -0.827   0.741  0.00  0.00     0.102 A 
ATOM     10  C   UNL d   1       7.523  -0.658   0.301  0.00  0.00     0.101 A 
ATOM     11  C   UNL d   1       8.445   0.011   1.122  0.00  0.00     0.039 A 
ATOM     12  C   UNL d   1       8.056   0.506   2.369  0.00  0.00     0.003 A 
ATOM     13  C   UNL d   1       6.741   0.336   2.806  0.00  0.00     0.003 A 
ATOM     14  C   UNL d   1       5.817  -0.328   1.997  0.00  0.00     0.039 A 
BRANCH  10  15
ATOM     15  O   UNL d   1       7.898  -1.164  -0.948  0.00  0.00    -0.353 OA
ATOM     16  C   UNL d   1       9.213  -1.031  -1.469  0.00  0.00     0.210 C 
ENDBRANCH  10  15
ENDBRANCH   8   9
ENDBRANCH   7   8
ENDBRANCH   6   7
ENDBRANCH   3   6
ENDBRANCH   2   3
ENDBRANCH   1   2
BRANCH   1  17
ATOM     17  C   UNL d   1      -1.040  -0.375  -0.727  0.00  0.00     0.209 C 
BRANCH  17  18
ATOM     18  O   UNL d   1      -2.461  -0.354  -0.641  0.00  0.00    -0.348 OA
BRANCH  18  19
ATOM     19  C   UNL d   1      -3.239   0.706  -1.119  0.00  0.00     0.082 A 
ATOM     20  C   UNL d   1      -4.625   0.699  -0.954  0.00  0.00     0.036 A 
ATOM     21  C   UNL d   1      -5.427   1.725  -1.413  0.00  0.00     0.046 A 
ATOM     22  C   UNL d   1      -5.476  -0.201  -0.365  0.00  0.00     0.006 A 
ATOM     23  C   UNL d   1      -4.886   2.827  -2.072  0.00  0.00     0.030 A 
ATOM     24  N   UNL d   1      -6.738   1.519  -1.146  0.00  0.00    -0.355 N 
ATOM     25  C   UNL d   1      -3.492   2.864  -2.256  0.00  0.00     0.005 A 
ATOM     26  C   UNL d   1      -2.675   1.815  -1.786  0.00  0.00     0.038 A 
ATOM     27  C   UNL d   1      -6.742   0.329  -0.502  0.00  0.00     0.043 A 
ATOM     28  HN  UNL d   1      -7.532   2.117  -1.375  1.00  0.00     0.166 HD
ATOM     29  C   UNL d   1      -7.861  -0.338  -0.007  0.00  0.00     0.030 A 
ATOM     30  C   UNL d   1      -7.659  -1.571   0.638  0.00  0.00     0.002 A 
ATOM     31  C   UNL d   1      -6.360  -2.108   0.774  0.00  0.00     0.001 A 
ATOM     32  C   UNL d   1      -5.243  -1.419   0.269  0.00  0.00     0.014 A 
ENDBRANCH  18  19
ENDBRANCH  17  18
ENDBRANCH   1  17
BRANCH   1  33
ATOM     33  O   UNL d   1      -0.700   0.024   1.609  0.00  0.00    -0.392 OA
ATOM     34  HO  UNL d   1      -1.637  -0.062   1.738  1.00  0.00     0.210 HD
ENDBRANCH   1  33
TORSDOF 11
