REMARK  2 active torsions:
REMARK  status: ('A' for Active; 'I' for Inactive)
REMARK    1  A    between atoms: O_2  and  C_3 
REMARK    2  A    between atoms: C_8  and  O_9 
ROOT
ATOM      1  C   UNL d   1       4.453   0.211   0.366  0.00  0.00     0.102 A 
ATOM      2  C   UNL d   1       3.921   1.374   0.945  0.00  0.00     0.040 A 
ATOM      3  C   UNL d   1       2.545   1.585   0.992  0.00  0.00     0.011 A 
ATOM      4  C   UNL d   1       1.674   0.633   0.467  0.00  0.00    -0.045 A 
ATOM      5  C   UNL d   1       2.186  -0.531  -0.137  0.00  0.00     0.013 A 
ATOM      6  C   UNL d   1       3.575  -0.761  -0.179  0.00  0.00     0.110 A 
ATOM      7  C   UNL d   1       1.233  -1.581  -0.644  0.00  0.00     0.315 C 
ATOM      8  C   UNL d   1      -0.901  -2.111  -1.430  0.00  0.00     0.278 C 
ATOM      9  C   UNL d   1      -2.199  -1.574  -2.017  0.00  0.00     0.069 C 
ATOM     10  C   UNL d   1      -2.849  -0.623  -1.061  0.00  0.00    -0.045 A 
ATOM     11  C   UNL d   1      -4.220  -0.342  -1.210  0.00  0.00     0.047 A 
ATOM     12  C   UNL d   1      -4.798   0.553  -0.316  0.00  0.00     0.105 A 
ATOM     13  C   UNL d   1      -4.085   1.145   0.674  0.00  0.00     0.105 A 
ATOM     14  C   UNL d   1      -2.727   0.903   0.854  0.00  0.00     0.049 A 
ATOM     15  C   UNL d   1      -2.086   0.024  -0.046  0.00  0.00    -0.016 A 
ATOM     16  C   UNL d   1      -0.625  -0.332   0.150  0.00  0.00     0.261 C 
ATOM     17  C   UNL d   1       0.200   0.919   0.476  0.00  0.00     0.080 C 
ATOM     18  O   UNL d   1      -4.914   1.969   1.408  0.00  0.00    -0.323 OA
ATOM     19  C   UNL d   1      -6.230   1.893   0.843  0.00  0.00     0.352 A 
ATOM     20  O   UNL d   1      -6.110   0.978  -0.255  0.00  0.00    -0.323 OA
ATOM     21  N   UNL d   1      -0.048  -0.995  -1.035  0.00  0.00     0.102 N 
ENDROOT
BRANCH   1  22
ATOM     22  O   UNL d   1       5.840   0.019   0.332  0.00  0.00    -0.353 OA
ATOM     23  C   UNL d   1       6.766   0.958   0.863  0.00  0.00     0.210 C 
ENDBRANCH   1  22
BRANCH   6  24
ATOM     24  O   UNL d   1       4.021  -1.958  -0.767  0.00  0.00    -0.352 OA
ATOM     25  C   UNL d   1       5.380  -2.355  -0.882  0.00  0.00     0.210 C 
ENDBRANCH   6  24
TORSDOF 2
