REMARK  3 active torsions:
REMARK  status: ('A' for Active; 'I' for Inactive)
REMARK    1  A    between atoms: C_5  and  S_8 
REMARK    2  A    between atoms: S_8  and  N_11 
REMARK    3  A    between atoms: N_11  and  C_13 
ROOT
ATOM      1  S   UNL d   1       0.240  -1.773  -0.884  0.00  0.00     0.264 S 
ATOM      2  O   UNL d   1       0.864  -3.133  -0.748  0.00  0.00    -0.200 OA
ATOM      3  O   UNL d   1      -0.039  -1.506  -2.337  0.00  0.00    -0.200 OA
ENDROOT
BRANCH   1   4
ATOM      4  C   UNL d   1       1.343  -0.569  -0.243  0.00  0.00     0.080 A 
ATOM      5  C   UNL d   1       1.539  -0.470   1.139  0.00  0.00     0.027 A 
ATOM      6  C   UNL d   1       2.410   0.494   1.656  0.00  0.00     0.028 A 
ATOM      7  C   UNL d   1       3.087   1.360   0.792  0.00  0.00     0.046 A 
ATOM      8  N   UNL d   1       3.974   2.340   1.318  0.00  0.00    -0.102 NA
ATOM      9  C   UNL d   1       2.893   1.262  -0.589  0.00  0.00     0.028 A 
ATOM     10  C   UNL d   1       2.022   0.299  -1.106  0.00  0.00     0.027 A 
ENDBRANCH   1   4
BRANCH   1  11
ATOM     11  N   UNL d   1      -1.250  -1.733  -0.003  0.00  0.00    -0.266 N 
ATOM     12  HN  UNL d   1      -1.562  -2.582   0.469  1.00  0.00     0.180 HD
BRANCH  11  13
ATOM     13  C   UNL d   1      -2.058  -0.560   0.092  0.00  0.00     0.114 A 
ATOM     14  N   UNL d   1      -1.687   0.594  -0.531  0.00  0.00    -0.352 N 
ATOM     15  C   UNL d   1      -2.441   1.724  -0.451  0.00  0.00     0.089 A 
ATOM     16  HN  UNL d   1      -0.822   0.611  -1.070  1.00  0.00     0.166 HD
ATOM     17  C   UNL d   1      -3.629   1.721   0.283  0.00  0.00     0.017 A 
ATOM     18  C   UNL d   1      -4.028   0.550   0.928  0.00  0.00     0.005 A 
ATOM     19  C   UNL d   1      -3.241  -0.599   0.834  0.00  0.00     0.049 A 
ENDBRANCH  11  13
ENDBRANCH   1  11
TORSDOF 3
