REMARK  4 active torsions:
REMARK  status: ('A' for Active; 'I' for Inactive)
REMARK    1  A    between atoms: C_6  and  C_13 
REMARK    2  A    between atoms: C_13  and  C_16 
REMARK    3  A    between atoms: C_24  and  C_28 
REMARK    4  A    between atoms: N_32  and  C_34 
ROOT
ATOM      1  C   UNL d   1       0.746  -1.766  -1.458  0.00  0.00     0.198 A 
ATOM      2  N   UNL d   1       1.172  -3.049  -1.373  0.00  0.00    -0.281 N 
ATOM      3  HN  UNL d   1       2.050  -3.417  -1.739  1.00  0.00     0.188 HD
ATOM      4  N   UNL d   1       0.236  -3.745  -0.725  0.00  0.00    -0.282 N 
ATOM      5  HN  UNL d   1       0.254  -4.741  -0.507  1.00  0.00     0.188 HD
ATOM      6  C   UNL d   1      -0.735  -2.866  -0.418  0.00  0.00     0.143 A 
ATOM      7  C   UNL d   1      -1.912  -3.111   0.276  0.00  0.00     0.054 A 
ATOM      8  C   UNL d   1      -2.757  -2.009   0.488  0.00  0.00     0.036 A 
ATOM      9  C   UNL d   1      -2.395  -0.729   0.008  0.00  0.00     0.061 A 
ATOM     10  N   UNL d   1      -1.217  -0.576  -0.665  0.00  0.00    -0.290 N 
ATOM     11  HN  UNL d   1      -0.936   0.339  -1.019  1.00  0.00     0.187 HD
ATOM     12  N   UNL d   1      -0.443  -1.641  -0.853  0.00  0.00    -0.218 N 
ENDROOT
BRANCH   1  13
ATOM     13  C   UNL d   1       1.553  -0.642  -2.042  0.00  0.00     0.334 C 
ATOM     14  F   UNL d   1       2.381  -1.149  -3.031  0.00  0.00    -0.192 F 
ATOM     15  F   UNL d   1       0.711   0.281  -2.638  0.00  0.00    -0.192 F 
BRANCH  13  16
ATOM     16  C   UNL d   1       2.386   0.004  -0.960  0.00  0.00     0.060 A 
ATOM     17  C   UNL d   1       3.655  -0.541  -0.663  0.00  0.00     0.032 A 
ATOM     18  C   UNL d   1       4.389   0.036   0.366  0.00  0.00     0.010 A 
ATOM     19  C   UNL d   1       5.633  -0.266   0.874  0.00  0.00     0.123 A 
ATOM     20  C   UNL d   1       3.916   1.090   1.092  0.00  0.00     0.062 A 
ATOM     21  N   UNL d   1       5.840   0.623   1.875  0.00  0.00    -0.306 N 
ATOM     22  C   UNL d   1       7.034   0.676   2.697  0.00  0.00     0.177 C 
ATOM     23  N   UNL d   1       4.812   1.451   2.022  0.00  0.00    -0.298 N 
ATOM     24  HN  UNL d   1       4.723   2.206   2.702  1.00  0.00     0.187 HD
ATOM     25  C   UNL d   1       2.669   1.651   0.849  0.00  0.00     0.074 A 
ATOM     26  C   UNL d   1       1.893   1.098  -0.187  0.00  0.00     0.131 A 
ATOM     27  F   UNL d   1       0.669   1.629  -0.428  0.00  0.00    -0.205 F 
ENDBRANCH  13  16
ENDBRANCH   1  13
BRANCH   9  28
ATOM     28  C   UNL d   1      -3.269   0.432   0.231  0.00  0.00     0.026 A 
ATOM     29  C   UNL d   1      -3.023   1.731  -0.176  0.00  0.00     0.122 A 
ATOM     30  N   UNL d   1      -4.059   2.490   0.230  0.00  0.00    -0.309 N 
ATOM     31  N   UNL d   1      -4.926   1.709   0.853  0.00  0.00    -0.298 N 
ATOM     32  HN  UNL d   1      -4.158   3.495   0.082  1.00  0.00     0.186 HD
ATOM     33  C   UNL d   1      -4.481   0.440   0.895  0.00  0.00     0.125 A 
BRANCH  31  34
ATOM     34  C   UNL d   1      -6.145   2.192   1.491  0.00  0.00     0.107 A 
ATOM     35  C   UNL d   1      -7.360   1.567   0.827  0.00  0.00     0.029 A 
ATOM     36  C   UNL d   1      -6.972   2.990   0.497  0.00  0.00     0.029 A 
ENDBRANCH  31  34
ENDBRANCH   9  28
TORSDOF 4
