REMARK  Name = fda_5211
REMARK  6 active torsions:
REMARK  status: ('A' for Active; 'I' for Inactive)
REMARK    1  A    between atoms: C_2  and  C_3
REMARK    2  A    between atoms: C_2  and  C_9
REMARK    3  A    between atoms: C_2  and  O_15
REMARK    4  A    between atoms: O_15  and  C_16
REMARK    5  A    between atoms: C_16  and  C_17
REMARK    6  A    between atoms: C_17  and  N_20
REMARK                            x       y       z     vdW  Elec       q    Type
REMARK                         _______ _______ _______ _____ _____    ______ ____
ROOT
ATOM      1  C   UNL A   1      -1.149   0.655  -1.736  0.00  0.00    +0.040 C 
ATOM      2  C   UNL A   1      -0.450   0.250  -0.428  0.00  0.00    +0.146 C 
ENDROOT
BRANCH   2   3
ATOM      3  C   UNL A   1      -0.702   1.359   0.578  0.00  0.00    +0.007 A 
ATOM      4  C   UNL A   1       0.365   2.066   1.159  0.00  0.00    -0.002 A 
ATOM      5  C   UNL A   1       0.125   3.081   2.089  0.00  0.00    -0.000 A 
ATOM      6  C   UNL A   1      -1.185   3.402   2.451  0.00  0.00    -0.000 A 
ATOM      7  C   UNL A   1      -2.256   2.707   1.884  0.00  0.00    -0.000 A 
ATOM      8  C   UNL A   1      -2.017   1.692   0.954  0.00  0.00    -0.002 A 
ENDBRANCH   2   3
BRANCH   2   9
ATOM      9  C   UNL A   1      -1.028  -1.041   0.137  0.00  0.00    +0.087 A 
ATOM     10  C   UNL A   1      -0.352  -1.721   1.163  0.00  0.00    +0.017 A 
ATOM     11  C   UNL A   1      -0.909  -2.881   1.703  0.00  0.00    +0.003 A 
ATOM     12  C   UNL A   1      -2.135  -3.349   1.230  0.00  0.00    +0.021 A 
ATOM     13  C   UNL A   1      -2.790  -2.643   0.219  0.00  0.00    +0.099 A 
ATOM     14  N   UNL A   1      -2.232  -1.514  -0.296  0.00  0.00    -0.245 NA
ENDBRANCH   2   9
BRANCH   2  15
ATOM     15  O   UNL A   1       0.953   0.129  -0.643  0.00  0.00    -0.347 OA
BRANCH  15  16
ATOM     16  C   UNL A   1       1.222  -0.866  -1.604  0.00  0.00    +0.160 C 
BRANCH  16  17
ATOM     17  C   UNL A   1       2.713  -1.149  -1.649  0.00  0.00    +0.105 C 
BRANCH  17  20
ATOM     18  C   UNL A   1       3.657  -0.191  -3.561  0.00  0.00    +0.090 C 
ATOM     19  C   UNL A   1       4.738  -0.002  -1.508  0.00  0.00    +0.090 C 
ATOM     20  N   UNL A   1       3.432   0.016  -2.141  0.00  0.00    -0.268 NA
ENDBRANCH  17  20
ENDBRANCH  16  17
ENDBRANCH  15  16
ENDBRANCH   2  15
TORSDOF 6
