REMARK  Name = fda_6348
REMARK  6 active torsions:
REMARK  status: ('A' for Active; 'I' for Inactive)
REMARK    1  A    between atoms: C_2  and  C_5
REMARK    2  A    between atoms: C_5  and  N_6
REMARK    3  A    between atoms: N_10  and  C_11
REMARK    4  A    between atoms: C_15  and  C_17
REMARK    5  A    between atoms: C_22  and  C_24
REMARK    6  A    between atoms: C_28  and  C_30
REMARK                            x       y       z     vdW  Elec       q    Type
REMARK                         _______ _______ _______ _____ _____    ______ ____
ROOT
ATOM      1  N   UNL A   1      -2.875   3.484  -0.145  0.00  0.00    -0.201 NA
ATOM      2  C   UNL A   1      -1.948   2.409   0.004  0.00  0.00    +0.240 A 
ATOM      3  N   UNL A   1      -0.845   2.549   0.787  0.00  0.00    -0.178 NA
ATOM      4  C   UNL A   1       0.036   1.526   0.918  0.00  0.00    +0.245 A 
ATOM      5  N   UNL A   1       1.184   1.692   1.759  0.00  0.00    -0.177 NA
ATOM      6  N   UNL A   1      -0.200   0.352   0.276  0.00  0.00    -0.191 NA
ATOM      7  C   UNL A   1      -1.301   0.202  -0.504  0.00  0.00    +0.186 A 
ATOM      8  N   UNL A   1      -2.172   1.236  -0.640  0.00  0.00    -0.192 NA
ENDROOT
BRANCH   5   9
ATOM      9  C   UNL A   1       2.312   0.810   1.844  0.00  0.00    +0.077 A 
ATOM     10  C   UNL A   1       3.241   0.999   2.869  0.00  0.00    +0.037 A 
ATOM     11  C   UNL A   1       4.360   0.167   2.947  0.00  0.00    +0.100 A 
ATOM     12  N   UNL A   1       4.544  -0.817   2.026  0.00  0.00    -0.240 NA
ATOM     13  C   UNL A   1       3.656  -1.029   1.016  0.00  0.00    +0.154 A 
ATOM     14  C   UNL A   1       2.530  -0.205   0.904  0.00  0.00    +0.040 A 
BRANCH  13  15
ATOM     15  C   UNL A   1       3.931  -2.094  -0.002  0.00  0.00    +0.435 C 
ATOM     16  F   UNL A   1       4.327  -3.256   0.636  0.00  0.00    -0.164 F 
ATOM     17  F   UNL A   1       2.800  -2.363  -0.755  0.00  0.00    -0.164 F 
ATOM     18  F   UNL A   1       4.943  -1.671  -0.844  0.00  0.00    -0.164 F 
ENDBRANCH  13  15
ENDBRANCH   5   9
BRANCH   7  19
ATOM     19  C   UNL A   1      -1.548  -1.079  -1.187  0.00  0.00    +0.117 A 
ATOM     20  C   UNL A   1      -2.646  -1.231  -2.044  0.00  0.00    +0.022 A 
ATOM     21  C   UNL A   1      -2.856  -2.454  -2.681  0.00  0.00    +0.003 A 
ATOM     22  C   UNL A   1      -1.978  -3.514  -2.455  0.00  0.00    +0.023 A 
ATOM     23  C   UNL A   1      -0.899  -3.340  -1.580  0.00  0.00    +0.153 A 
ATOM     24  N   UNL A   1      -0.705  -2.131  -0.985  0.00  0.00    -0.238 NA
BRANCH  23  25
ATOM     25  C   UNL A   1       0.080  -4.452  -1.353  0.00  0.00    +0.435 C 
ATOM     26  F   UNL A   1       0.674  -4.317  -0.111  0.00  0.00    -0.164 F 
ATOM     27  F   UNL A   1      -0.560  -5.678  -1.407  0.00  0.00    -0.164 F 
ATOM     28  F   UNL A   1       1.057  -4.408  -2.330  0.00  0.00    -0.164 F 
ENDBRANCH  23  25
ENDBRANCH   7  19
BRANCH   1  29
ATOM     29  C   UNL A   1      -2.688   4.765   0.522  0.00  0.00    +0.145 C 
BRANCH  29  31
ATOM     30  C   UNL A   1      -5.139   5.182   0.753  0.00  0.00    +0.035 C 
ATOM     31  C   UNL A   1      -3.832   5.719   0.202  0.00  0.00    +0.147 C 
ATOM     32  C   UNL A   1      -3.543   7.060   0.843  0.00  0.00    +0.035 C 
ATOM     33  O   UNL A   1      -3.942   5.888  -1.179  0.00  0.00    -0.224 OA
ENDBRANCH  29  31
ENDBRANCH   1  29
TORSDOF 6
