REMARK  Name = fda_4004
REMARK  2 active torsions:
REMARK  status: ('A' for Active; 'I' for Inactive)
REMARK    1  A    between atoms: C_13  and  C_14
REMARK    2  A    between atoms: C_13  and  N_26
REMARK                            x       y       z     vdW  Elec       q    Type
REMARK                         _______ _______ _______ _____ _____    ______ ____
ROOT
ATOM      1  C   UNL A   1      -1.851  -2.609   0.311  0.00  0.00    -0.001 A 
ATOM      2  C   UNL A   1      -3.176  -2.284   0.678  0.00  0.00    +0.045 A 
ATOM      3  C   UNL A   1      -3.555  -0.938   0.843  0.00  0.00    +0.229 A 
ATOM      4  C   UNL A   1      -2.578   0.045   0.683  0.00  0.00    +0.173 A 
ATOM      5  C   UNL A   1      -1.276  -0.287   0.479  0.00  0.00    +0.016 A 
ATOM      6  C   UNL A   1      -0.890  -1.593   0.179  0.00  0.00    -0.021 A 
ATOM      7  C   UNL A   1       0.434  -1.840  -0.508  0.00  0.00    +0.045 C 
ATOM      8  C   UNL A   1       1.304  -0.559  -0.654  0.00  0.00    +0.090 C 
ATOM      9  C   UNL A   1       0.454   0.717  -0.959  0.00  0.00    +0.147 C 
ATOM     10  C   UNL A   1      -0.448   0.933   0.272  0.00  0.00    +0.089 C 
ATOM     11  C   UNL A   1       0.435   1.194   1.496  0.00  0.00    +0.028 C 
ATOM     12  C   UNL A   1       1.402   0.027   1.753  0.00  0.00    +0.073 C 
ATOM     13  C   UNL A   1      -1.538   2.038   0.145  0.00  0.00    +0.202 C 
ATOM     14  O   UNL A   1      -2.759   1.409   0.569  0.00  0.00    -0.473 OA
ATOM     15  C   UNL A   1      -1.661   2.541  -1.303  0.00  0.00    +0.192 C 
ATOM     16  C   UNL A   1      -1.659   1.383  -2.304  0.00  0.00    +0.039 C 
ATOM     17  C   UNL A   1      -0.367   0.547  -2.255  0.00  0.00    +0.035 C 
ATOM     18  O   UNL A   1      -2.820   3.303  -1.456  0.00  0.00    -0.219 OA
ATOM     19  O   UNL A   1       1.291   1.823  -1.140  0.00  0.00    -0.224 OA
ATOM     20  O   UNL A   1      -4.873  -0.599   1.119  0.00  0.00    -0.283 OA
ATOM     21  N   UNL A   1       2.143  -0.411   0.556  0.00  0.00    -0.272 NA
ENDROOT
BRANCH  21  22
ATOM     22  C   UNL A   1       3.273   0.485   0.314  0.00  0.00    +0.072 C 
BRANCH  22  23
ATOM     23  C   UNL A   1       4.606  -0.266   0.212  0.00  0.00    +0.016 C 
ATOM     24  C   UNL A   1       4.809  -1.238   1.358  0.00  0.00    +0.001 C 
ATOM     25  C   UNL A   1       4.757  -2.397   0.379  0.00  0.00    +0.000 C 
ATOM     26  C   UNL A   1       4.545  -1.424  -0.766  0.00  0.00    +0.001 C 
ENDBRANCH  22  23
ENDBRANCH  21  22
TORSDOF 2
