REMARK  16 active torsions:
REMARK  status: ('A' for Active; 'I' for Inactive)
REMARK    1  A    between atoms: C_2  and  C_3 
REMARK    2  A    between atoms: C_3  and  C_4 
REMARK    3  A    between atoms: C_4  and  C_5 
REMARK    4  A    between atoms: C_5  and  C_6 
REMARK    5  A    between atoms: C_6  and  C_7 
REMARK    6  A    between atoms: C_7  and  C_8 
REMARK    7  A    between atoms: N_11  and  C_12 
REMARK    8  A    between atoms: C_20  and  S_21 
REMARK    9  A    between atoms: C_23  and  O_24 
REMARK   10  A    between atoms: O_24  and  C_25 
REMARK   11  A    between atoms: C_25  and  C_26 
REMARK       I    between atoms: C_26  and  N_34 
REMARK   12  A    between atoms: C_36  and  N_34 
REMARK   13  A    between atoms: C_36  and  C_37 
REMARK   14  A    between atoms: C_36  and  C_39 
REMARK       I    between atoms: C_37  and  N_45 
REMARK   15  A    between atoms: N_45  and  CA_47 
REMARK   16  A    between atoms: CA_47  and  C_48 
ROOT
ATOM      1  C   UNK d   0      -5.503  -0.084   1.388  0.00  0.00    -0.011 C 
ATOM      2  C   UNK d   0      -4.359   0.295   2.339  0.00  0.00     0.140 C 
ATOM      3  N   UNK d   0      -3.353   1.139   1.704  0.00  0.00    -0.345 N 
ATOM      4  C   UNK d   0      -2.162   0.529   1.191  0.00  0.00     0.058 A 
ATOM      5  C   UNK d   0      -0.927   0.848   1.772  0.00  0.00     0.052 A 
ATOM      6  C   UNK d   0       0.256   0.281   1.299  0.00  0.00     0.035 A 
ATOM      7  C   UNK d   0       0.219  -0.620   0.226  0.00  0.00     0.087 A 
ATOM      8  C   UNK d   0      -1.014  -0.941  -0.361  0.00  0.00     0.064 A 
ATOM      9  C   UNK d   0      -2.208  -0.383   0.119  0.00  0.00     0.088 A 
ATOM     10  S   UNK d   0      -3.716  -0.764  -0.706  0.00  0.00     0.178 S 
ATOM     11  O   UNK d   0      -3.490  -1.961  -1.589  0.00  0.00    -0.223 OA
ATOM     12  O   UNK d   0      -4.112   0.401  -1.570  0.00  0.00    -0.223 OA
ATOM     13  C   UNK d   0      -5.028  -1.197   0.438  0.00  0.00     0.157 C 
ENDROOT
BRANCH   7  14
ATOM     14  O   UNK d   0       1.417  -1.173  -0.235  0.00  0.00    -0.341 OA
BRANCH  14  15
ATOM     15  C   UNK d   0       1.513  -2.002  -1.390  0.00  0.00     0.278 C 
BRANCH  15  16
ATOM     16  C   UNK d   0       2.936  -2.387  -1.600  0.00  0.00     0.242 C 
ATOM     17  O   UNK d   0       3.214  -3.528  -2.053  0.00  0.00    -0.271 OA
ATOM     18  N   UNK d   1       3.969  -1.439  -1.315  0.00  0.00    -0.342 N 
ATOM     19  HN  UNK d   1       3.699  -0.514  -0.982  1.00  0.00     0.163 HD
BRANCH  18  20
ATOM     20  C   UNK d   1       5.393  -1.728  -1.476  0.00  0.00     0.210 C 
BRANCH  20  21
ATOM     21  C   UNK d   1       5.789  -1.775  -2.926  0.00  0.00     0.245 C 
ATOM     22  O   UNK d   1       5.154  -1.101  -3.784  0.00  0.00    -0.271 OA
ATOM     23  N   GLY d   2       6.920  -2.561  -3.315  0.00  0.00    -0.349 N 
ATOM     24  HN  GLY d   2       7.457  -3.043  -2.594  1.00  0.00     0.163 HD
BRANCH  23  25
ATOM     25  CA  GLY d   2       7.328  -2.696  -4.703  0.00  0.00     0.235 C 
BRANCH  25  26
ATOM     26  C   GLY d   2       8.605  -3.457  -4.780  0.00  0.00     0.191 C 
ATOM     27  O   GLY d   2       8.664  -4.776  -4.344  0.00  0.00    -0.647 OA
ATOM     28  OXT GLY d   2       9.639  -2.900  -5.234  0.00  0.00    -0.647 OA
ENDBRANCH  25  26
ENDBRANCH  23  25
ENDBRANCH  20  21
BRANCH  20  29
ATOM     29  C   UNK d   1       6.212  -0.718  -0.734  0.00  0.00    -0.026 A 
ATOM     30  C   UNK d   1       6.001   0.660  -0.909  0.00  0.00     0.010 A 
ATOM     31  C   UNK d   1       6.777   1.588  -0.204  0.00  0.00     0.001 A 
ATOM     32  C   UNK d   1       7.767   1.144   0.677  0.00  0.00     0.000 A 
ATOM     33  C   UNK d   1       7.979  -0.229   0.857  0.00  0.00     0.001 A 
ATOM     34  C   UNK d   1       7.203  -1.158   0.151  0.00  0.00     0.010 A 
ENDBRANCH  20  29
ENDBRANCH  18  20
ENDBRANCH  15  16
ENDBRANCH  14  15
ENDBRANCH   7  14
BRANCH   6  35
ATOM     35  S   UNK d   0       1.805   0.713   2.090  0.00  0.00    -0.132 SA
ATOM     36  C   UNK d   0       2.050   2.175   1.040  0.00  0.00     0.095 C 
ENDBRANCH   6  35
BRANCH   3  37
ATOM     37  C   UNK d   0      -3.398   2.562   1.882  0.00  0.00     0.034 A 
ATOM     38  C   UNK d   0      -3.133   3.408   0.796  0.00  0.00     0.029 A 
ATOM     39  C   UNK d   0      -3.136   4.793   0.967  0.00  0.00     0.002 A 
ATOM     40  C   UNK d   0      -3.405   5.338   2.228  0.00  0.00     0.000 A 
ATOM     41  C   UNK d   0      -3.677   4.503   3.314  0.00  0.00     0.002 A 
ATOM     42  C   UNK d   0      -3.673   3.116   3.142  0.00  0.00     0.029 A 
ENDBRANCH   3  37
BRANCH   1  43
ATOM     43  C   UNK d   0      -6.643  -0.689   2.225  0.00  0.00     0.012 C 
BRANCH  43  44
ATOM     44  C   UNK d   0      -7.037   0.121   3.467  0.00  0.00     0.000 C 
BRANCH  44  45
ATOM     45  C   UNK d   0      -7.919   1.301   3.105  0.00  0.00    -0.005 C 
ATOM     46  C   UNK d   0      -8.230   2.099   4.353  0.00  0.00     0.005 C 
ENDBRANCH  44  45
ENDBRANCH  43  44
ENDBRANCH   1  43
BRANCH   1  47
ATOM     47  C   UNK d   0      -6.021   1.156   0.631  0.00  0.00     0.012 C 
BRANCH  47  48
ATOM     48  C   UNK d   0      -6.963   0.855  -0.537  0.00  0.00     0.000 C 
BRANCH  48  49
ATOM     49  C   UNK d   0      -8.391   0.642  -0.065  0.00  0.00    -0.005 C 
ATOM     50  C   UNK d   0      -9.314   0.600  -1.264  0.00  0.00     0.005 C 
ENDBRANCH  48  49
ENDBRANCH  47  48
ENDBRANCH   1  47
TORSDOF 16
