REMARK  Name = fda_6167
REMARK  2 active torsions:
REMARK  status: ('A' for Active; 'I' for Inactive)
REMARK    1  A    between atoms: C_5  and  S_8
REMARK    2  A    between atoms: S_8  and  N_11
REMARK                            x       y       z     vdW  Elec       q    Type
REMARK                         _______ _______ _______ _____ _____    ______ ____
ROOT
ATOM      1  S   UNL A   1      -0.489   0.018  -1.851  0.00  0.00    +0.095 S 
ATOM      2  O   UNL A   1      -0.215  -0.654  -3.166  0.00  0.00    -0.148 OA
ATOM      3  O   UNL A   1      -0.836   1.460  -2.100  0.00  0.00    -0.148 OA
ENDROOT
BRANCH   1   8
ATOM      4  N   UNL A   1       4.352  -0.397   1.626  0.00  0.00    -0.128 NA
ATOM      5  C   UNL A   1       3.202  -0.297   0.797  0.00  0.00    +0.089 A 
ATOM      6  C   UNL A   1       2.414  -1.426   0.554  0.00  0.00    +0.019 A 
ATOM      7  C   UNL A   1       1.283  -1.328  -0.261  0.00  0.00    +0.022 A 
ATOM      8  C   UNL A   1       0.937  -0.100  -0.836  0.00  0.00    +0.127 A 
ATOM      9  C   UNL A   1       1.727   1.030  -0.592  0.00  0.00    +0.022 A 
ATOM     10  C   UNL A   1       2.858   0.931   0.223  0.00  0.00    +0.019 A 
ENDBRANCH   1   8
BRANCH   1  11
ATOM     11  N   UNL A   1      -1.826  -0.760  -1.075  0.00  0.00    -0.070 NA
ATOM     12  C   UNL A   1      -2.288  -0.367   0.216  0.00  0.00    +0.203 A 
ATOM     13  N   UNL A   1      -1.747   0.634   0.938  0.00  0.00    -0.220 NA
ATOM     14  C   UNL A   1      -2.379   0.791   2.132  0.00  0.00    +0.108 A 
ATOM     15  C   UNL A   1      -3.434  -0.091   2.372  0.00  0.00    +0.059 A 
ATOM     16  S   UNL A   1      -3.560  -1.093   1.022  0.00  0.00    -0.048 S 
ENDBRANCH   1  11
TORSDOF 2
