REMARK  7 active torsions:
REMARK  status: ('A' for Active; 'I' for Inactive)
REMARK    1  A    between atoms: C_2  and  O_4 
REMARK    2  A    between atoms: O_4  and  C_5 
REMARK    3  A    between atoms: C_5  and  C_6 
REMARK    4  A    between atoms: CA_7  and  C_25 
REMARK    5  A    between atoms: CA_10  and  N_13 
REMARK       I    between atoms: N_13  and  C_15 
REMARK    6  A    between atoms: C_15  and  C_17 
REMARK    7  A    between atoms: C_17  and  C_18 
ROOT
ATOM      1  C   UNL d   1      -2.760  -1.077  -0.483  0.00  0.00    -0.013 C 
ATOM      2  CA  UNL d   1      -1.601  -1.279   0.172  0.00  0.00     0.121 C 
ATOM      3  N   UNL d   1      -0.494  -0.493  -0.252  0.00  0.00    -0.293 N 
ATOM      4  C   UNL d   1      -0.077  -0.094  -1.577  0.00  0.00     0.187 A 
ATOM      5  CA  UNL d   1       0.485   1.143  -1.119  0.00  0.00     0.210 A 
ATOM      6  C   UNL d   1       0.162   0.719   0.280  0.00  0.00     0.251 A 
ATOM      7  O   UNL d   1       0.325   1.217   1.425  0.00  0.00    -0.271 OA
ATOM      8  S   UNL d   1      -1.529   0.142  -2.682  0.00  0.00    -0.136 SA
ATOM      9  C   UNL d   1      -2.863   0.101  -1.416  0.00  0.00     0.115 C 
ENDROOT
BRANCH   5  10
ATOM     10  N   UNL d   1       1.932   1.202  -1.345  0.00  0.00    -0.345 N 
ATOM     11  C   UNL d   1       2.902   0.201  -1.004  0.00  0.00     0.223 C 
ATOM     12  O   UNL d   1       2.556  -0.887  -0.472  0.00  0.00    -0.273 OA
ATOM     13  HN  UNL d   1       2.288   2.047  -1.793  1.00  0.00     0.163 HD
BRANCH  11  14
ATOM     14  C   UNL d   1       4.346   0.468  -1.249  0.00  0.00     0.148 C 
BRANCH  14  15
ATOM     15  C   UNL d   1       4.931   1.218  -0.102  0.00  0.00    -0.009 A 
ATOM     16  S   UNL d   1       5.529   0.529   1.302  0.00  0.00    -0.106 SA
ATOM     17  C   UNL d   1       5.907   1.971   2.083  0.00  0.00     0.050 A 
ATOM     18  C   UNL d   1       5.547   3.012   1.230  0.00  0.00     0.008 A 
ATOM     19  C   UNL d   1       4.994   2.596   0.009  0.00  0.00     0.015 A 
ENDBRANCH  14  15
ENDBRANCH  11  14
ENDBRANCH   5  10
BRANCH   2  20
ATOM     20  C   UNL d   1      -1.390  -2.279   1.244  0.00  0.00     0.227 C 
ATOM     21  O   UNL d   1      -2.324  -3.018   1.653  0.00  0.00    -0.643 OA
ATOM     22  OXT UNL d   1      -0.131  -2.407   1.816  0.00  0.00    -0.643 OA
ENDBRANCH   2  20
BRANCH   1  23
ATOM     23  C   UNL d   1      -4.000  -1.877  -0.232  0.00  0.00     0.216 C 
BRANCH  23  24
ATOM     24  O   UNL d   1      -4.720  -1.345   0.875  0.00  0.00    -0.317 OA
BRANCH  24  25
ATOM     25  C   UNL d   1      -5.604  -0.272   0.749  0.00  0.00     0.255 C 
ATOM     26  C   UNL d   1      -6.271   0.271   1.961  0.00  0.00     0.126 C 
ATOM     27  O   UNL d   1      -5.852   0.236  -0.377  0.00  0.00    -0.266 OA
ENDBRANCH  24  25
ENDBRANCH  23  24
ENDBRANCH   1  23
TORSDOF 7
