REMARK  8 active torsions:
REMARK  status: ('A' for Active; 'I' for Inactive)
REMARK    1  A    between atoms: C_2  and  C_3 
REMARK    2  A    between atoms: C_2  and  C_11 
REMARK    3  A    between atoms: C_3  and  C_4 
REMARK    4  A    between atoms: C_4  and  C_5 
REMARK    5  A    between atoms: C_5  and  C_6 
REMARK    6  A    between atoms: C_6  and  O_9 
REMARK    7  A    between atoms: C_20  and  C_21 
REMARK    8  A    between atoms: C_24  and  O_29 
ROOT
ATOM      1  C   UNL d   1       2.159  -0.933   0.015  0.00  0.00    -0.002 C 
ATOM      2  C   UNL d   1       1.616  -0.215  -1.234  0.00  0.00     0.006 C 
ATOM      3  C   UNL d   1       0.100  -0.118  -1.074  0.00  0.00     0.010 C 
ATOM      4  C   UNL d   1      -0.190  -0.994   0.125  0.00  0.00     0.023 C 
ATOM      5  C   UNL d   1       1.017  -0.864   1.033  0.00  0.00    -0.033 C 
ATOM      6  C   UNL d   1       1.012  -2.007   2.059  0.00  0.00     0.010 C 
ATOM      7  C   UNL d   1      -0.405  -2.473   2.477  0.00  0.00     0.005 C 
ATOM      8  C   UNL d   1      -1.517  -1.423   2.274  0.00  0.00     0.034 C 
ATOM      9  C   UNL d   1      -1.471  -0.821   0.890  0.00  0.00    -0.075 C 
ATOM     10  C   UNL d   1      -2.523  -0.204   0.348  0.00  0.00     0.004 C 
ATOM     11  C   UNL d   1       1.019   0.481   1.778  0.00  0.00     0.016 C 
ENDROOT
BRANCH  10  12
ATOM     12  C   UNL d   1      -3.800  -0.035   1.056  0.00  0.00     0.008 C 
ATOM     13  C   UNL d   1      -4.860   0.585   0.522  0.00  0.00    -0.050 C 
ATOM     14  C   UNL d   1      -6.108   0.762   1.310  0.00  0.00    -0.061 C 
ATOM     15  C   UNL d   1      -4.765   1.202  -0.853  0.00  0.00     0.070 C 
ATOM     16  C   UNL d   1      -7.390   1.106   0.614  0.00  0.00     0.041 C 
ATOM     17  C   UNL d   1      -6.174   0.420   2.594  0.00  0.00     0.019 C 
ATOM     18  C   UNL d   1      -7.152   1.954  -0.634  0.00  0.00     0.036 C 
ATOM     19  C   UNL d   1      -6.119   1.305  -1.552  0.00  0.00     0.122 C 
BRANCH  19  20
ATOM     20  O   UNL d   1      -6.551   0.043  -1.966  0.00  0.00    -0.395 OA
ATOM     21  HO  UNL d   1      -7.393   0.108  -2.402  1.00  0.00     0.210 HD
ENDBRANCH  19  20
ENDBRANCH  10  12
BRANCH   1  22
ATOM     22  C   UNL d   1       3.512  -0.363   0.488  0.00  0.00    -0.014 C 
ATOM     23  C   UNL d   1       4.037  -1.151   1.675  0.00  0.00     0.010 C 
BRANCH  22  24
ATOM     24  C   UNL d   1       4.559  -0.431  -0.614  0.00  0.00     0.005 C 
BRANCH  24  25
ATOM     25  C   UNL d   1       4.611   0.886  -1.368  0.00  0.00     0.003 C 
BRANCH  25  26
ATOM     26  C   UNL d   1       5.668   0.830  -2.465  0.00  0.00     0.037 C 
BRANCH  26  27
ATOM     27  C   UNL d   1       7.076   1.161  -1.967  0.00  0.00     0.051 C 
ATOM     28  C   UNL d   1       7.136   2.582  -1.437  0.00  0.00     0.045 C 
ATOM     29  C   UNL d   1       8.040   1.037  -3.127  0.00  0.00     0.045 C 
BRANCH  27  30
ATOM     30  O   UNL d   1       7.461   0.272  -0.963  0.00  0.00    -0.391 OA
ATOM     31  HO  UNL d   1       8.335   0.478  -0.654  1.00  0.00     0.210 HD
ENDBRANCH  27  30
ENDBRANCH  26  27
ENDBRANCH  25  26
ENDBRANCH  24  25
ENDBRANCH  22  24
ENDBRANCH   1  22
TORSDOF 8
