REMARK  11 active torsions:
REMARK  status: ('A' for Active; 'I' for Inactive)
REMARK    1  A    between atoms: C_5  and  C_8 
REMARK    2  A    between atoms: C_8  and  O_10 
REMARK    3  A    between atoms: O_10  and  C_11 
REMARK    4  A    between atoms: C_14  and  C_27 
REMARK    5  A    between atoms: C_16  and  O_17 
REMARK    6  A    between atoms: O_17  and  C_18 
REMARK    7  A    between atoms: C_18  and  C_20 
REMARK    8  A    between atoms: C_27  and  C_28 
REMARK    9  A    between atoms: C_27  and  O_33 
REMARK   10  A    between atoms: C_28  and  N_35 
REMARK   11  A    between atoms: C_29  and  N_35 
ROOT
ATOM      1  C   UNL d   1       1.188   0.916   0.986  0.00  0.00     0.113 A 
ATOM      2  C   UNL d   1       2.470   1.267   1.420  0.00  0.00     0.041 A 
ATOM      3  C   UNL d   1       3.473   0.300   1.522  0.00  0.00     0.013 A 
ATOM      4  C   UNL d   1       3.202  -1.030   1.193  0.00  0.00    -0.025 A 
ATOM      5  C   UNL d   1       1.931  -1.383   0.721  0.00  0.00     0.050 A 
ATOM      6  C   UNL d   1       0.928  -0.418   0.589  0.00  0.00     0.114 A 
ENDROOT
BRANCH   4   7
ATOM      7  C   UNL d   1       4.289  -2.048   1.315  0.00  0.00     0.177 C 
BRANCH   7   8
ATOM      8  C   UNL d   1       4.769  -2.482  -0.059  0.00  0.00     0.269 C 
BRANCH   8   9
ATOM      9  N   UNL d   1       5.968  -3.308   0.071  0.00  0.00    -0.065 N 
ATOM     10  HN2 UNL d   1       6.685  -2.841   0.626  1.00  0.00     0.278 HD
ATOM     11  HN1 UNL d   1       5.803  -4.114   0.674  1.00  0.00     0.278 HD
BRANCH   9  12
ATOM     12  C   UNL d   1       6.484  -3.715  -1.240  0.00  0.00     0.115 C 
ATOM     13  C   UNL d   1       7.715  -4.569  -1.027  0.00  0.00     0.045 C 
ATOM     14  C   UNL d   1       6.887  -2.505  -2.071  0.00  0.00     0.045 C 
ATOM     15  C   UNL d   1       5.460  -4.545  -2.001  0.00  0.00     0.045 C 
ENDBRANCH   9  12
ENDBRANCH   8   9
ENDBRANCH   7   8
BRANCH   7  16
ATOM     16  O   UNL d   1       3.838  -3.154   2.041  0.00  0.00    -0.389 OA
ATOM     17  HO  UNL d   1       4.529  -3.802   2.118  1.00  0.00     0.210 HD
ENDBRANCH   7  16
ENDBRANCH   4   7
BRANCH   6  18
ATOM     18  O   UNL d   1      -0.309  -0.807   0.061  0.00  0.00    -0.272 OA
BRANCH  18  19
ATOM     19  C   UNL d   1      -0.964  -0.102  -0.957  0.00  0.00     0.298 C 
ATOM     20  O   UNL d   1      -0.309   0.649  -1.732  0.00  0.00    -0.259 OA
BRANCH  19  21
ATOM     21  C   UNL d   1      -2.424  -0.215  -1.102  0.00  0.00     0.040 A 
ATOM     22  C   UNL d   1      -3.102   0.534  -2.075  0.00  0.00     0.018 A 
ATOM     23  C   UNL d   1      -4.495   0.466  -2.173  0.00  0.00     0.007 A 
ATOM     24  C   UNL d   1      -5.218  -0.347  -1.297  0.00  0.00    -0.062 A 
ATOM     25  C   UNL d   1      -4.549  -1.095  -0.324  0.00  0.00     0.007 A 
ATOM     26  C   UNL d   1      -6.699  -0.415  -1.397  0.00  0.00     0.048 C 
ATOM     27  C   UNL d   1      -3.156  -1.028  -0.226  0.00  0.00     0.018 A 
ENDBRANCH  19  21
ENDBRANCH  18  19
ENDBRANCH   6  18
BRANCH   1  28
ATOM     28  O   UNL d   1       0.198   1.905   0.962  0.00  0.00    -0.272 OA
BRANCH  28  29
ATOM     29  C   UNL d   1      -1.075   1.727   1.520  0.00  0.00     0.298 C 
ATOM     30  O   UNL d   1      -1.262   0.851   2.408  0.00  0.00    -0.259 OA
BRANCH  29  31
ATOM     31  C   UNL d   1      -2.202   2.546   1.047  0.00  0.00     0.040 A 
ATOM     32  C   UNL d   1      -2.009   3.482   0.022  0.00  0.00     0.018 A 
ATOM     33  C   UNL d   1      -3.088   4.224  -0.468  0.00  0.00     0.007 A 
ATOM     34  C   UNL d   1      -4.367   4.031   0.061  0.00  0.00    -0.062 A 
ATOM     35  C   UNL d   1      -5.514   4.817  -0.462  0.00  0.00     0.048 C 
ATOM     36  C   UNL d   1      -4.568   3.097   1.081  0.00  0.00     0.007 A 
ATOM     37  C   UNL d   1      -3.490   2.355   1.571  0.00  0.00     0.018 A 
ENDBRANCH  29  31
ENDBRANCH  28  29
ENDBRANCH   1  28
TORSDOF 11
