REMARK  5 active torsions:
REMARK  status: ('A' for Active; 'I' for Inactive)
REMARK    1  A    between atoms: C_13  and  O_28 
REMARK    2  A    between atoms: C_19  and  C_20 
REMARK    3  A    between atoms: C_19  and  O_25 
REMARK    4  A    between atoms: C_20  and  C_22 
REMARK    5  A    between atoms: C_22  and  O_23 
ROOT
ATOM      1  C   UNL d   1      -2.016   1.079   2.069  0.00  0.00     0.023 C 
ATOM      2  C   UNL d   1      -1.994   1.091   0.540  0.00  0.00     0.019 C 
ATOM      3  C   UNL d   1      -2.221   2.538   0.052  0.00  0.00     0.025 C 
ATOM      4  C   UNL d   1      -3.631   3.042   0.351  0.00  0.00     0.084 C 
ATOM      5  C   UNL d   1      -4.642   2.084  -0.185  0.00  0.00     0.149 C 
ATOM      6  O   UNL d   1      -5.784   2.497  -0.515  0.00  0.00    -0.293 OA
ATOM      7  C   UNL d   1      -4.332   0.651  -0.269  0.00  0.00     0.053 C 
ATOM      8  C   UNL d   1      -3.116   0.176   0.025  0.00  0.00    -0.065 C 
ATOM      9  C   UNL d   1      -2.944  -1.321   0.010  0.00  0.00     0.036 C 
ATOM     10  C   UNL d   1      -1.544  -1.743  -0.435  0.00  0.00     0.013 C 
ATOM     11  C   UNL d   1      -0.530  -0.940   0.362  0.00  0.00     0.034 C 
ATOM     12  C   UNL d   1      -0.620   0.567   0.015  0.00  0.00     0.144 C 
ATOM     13  C   UNL d   1       0.626   1.295   0.601  0.00  0.00     0.160 C 
ATOM     14  C   UNL d   1       1.976   0.750   0.066  0.00  0.00     0.048 C 
ATOM     15  C   UNL d   1       1.948  -0.728  -0.378  0.00  0.00     0.001 C 
ATOM     16  C   UNL d   1       0.900  -1.485   0.398  0.00  0.00     0.005 C 
ATOM     17  C   UNL d   1       1.200  -2.960   0.275  0.00  0.00     0.009 C 
ATOM     18  C   UNL d   1       2.719  -3.003   0.090  0.00  0.00     0.047 C 
ATOM     19  C   UNL d   1       3.218  -1.551  -0.051  0.00  0.00     0.128 C 
ATOM     20  C   UNL d   1       1.645  -0.792  -1.879  0.00  0.00     0.019 C 
ATOM     21  F   UNL d   1      -0.606   0.727  -1.366  0.00  0.00    -0.239 F 
ENDROOT
BRANCH  19  22
ATOM     22  C   UNL d   1       3.889  -1.115   1.243  0.00  0.00     0.184 C 
ATOM     23  O   UNL d   1       4.959  -0.526   1.208  0.00  0.00    -0.292 OA
BRANCH  22  24
ATOM     24  C   UNL d   1       3.247  -1.364   2.575  0.00  0.00     0.245 C 
BRANCH  24  25
ATOM     25  O   UNL d   1       2.931  -0.150   3.184  0.00  0.00    -0.393 OA
ATOM     26  HO  UNL d   1       2.524  -0.308   4.028  1.00  0.00     0.209 HD
ENDBRANCH  24  25
ENDBRANCH  22  24
ENDBRANCH  19  22
BRANCH  19  27
ATOM     27  O   UNL d   1       4.146  -1.488  -1.098  0.00  0.00    -0.381 OA
ATOM     28  HO  UNL d   1       4.925  -1.993  -0.897  1.00  0.00     0.211 HD
ENDBRANCH  19  27
BRANCH  13  29
ATOM     29  O   UNL d   1       0.576   2.670   0.370  0.00  0.00    -0.392 OA
ATOM     30  HO  UNL d   1       1.336   3.114   0.728  1.00  0.00     0.210 HD
ENDBRANCH  13  29
TORSDOF 5
