REMARK  4 active torsions:
REMARK  status: ('A' for Active; 'I' for Inactive)
REMARK    1  A    between atoms: C_2  and  C_3 
REMARK       I    between atoms: C_3  and  N_5 
REMARK    2  A    between atoms: N_5  and  C_7 
REMARK    3  A    between atoms: C_7  and  C_8 
REMARK    4  A    between atoms: C_9  and  C_8 
ROOT
ATOM      1  C   UNL d   1       0.254   0.154  -0.785  0.00  0.00     0.021 A 
ATOM      2  C   UNL d   1       0.970   1.348  -0.127  0.00  0.00     0.014 A 
ATOM      3  C   UNL d   1      -0.001   2.004   0.867  0.00  0.00     0.040 A 
ATOM      4  C   UNL d   1      -1.262   1.262   0.670  0.00  0.00    -0.051 A 
ATOM      5  C   UNL d   1      -2.493   1.521   1.299  0.00  0.00     0.010 A 
ATOM      6  C   UNL d   1      -3.605   0.715   0.979  0.00  0.00     0.038 A 
ATOM      7  C   UNL d   1      -3.433  -0.311   0.039  0.00  0.00     0.075 A 
ATOM      8  O   UNL d   1      -4.391  -1.193  -0.404  0.00  0.00    -0.350 OA
ATOM      9  C   UNL d   1      -3.826  -2.089  -1.364  0.00  0.00     0.180 A 
ATOM     10  C   UNL d   1      -2.342  -1.684  -1.509  0.00  0.00     0.068 A 
ATOM     11  C   UNL d   1      -2.227  -0.547  -0.562  0.00  0.00    -0.015 A 
ATOM     12  C   UNL d   1      -1.122   0.242  -0.243  0.00  0.00    -0.038 A 
ENDROOT
BRANCH   1  13
ATOM     13  C   UNL d   1       0.902  -1.152  -0.344  0.00  0.00     0.029 C 
BRANCH  13  14
ATOM     14  C   UNL d   1       2.113  -1.487  -1.206  0.00  0.00     0.123 C 
BRANCH  14  15
ATOM     15  N   UNL d   1       3.244  -0.634  -0.865  0.00  0.00    -0.361 N 
ATOM     16  C   UNL d   1       3.971  -0.766   0.358  0.00  0.00     0.217 C 
ATOM     17  O   UNL d   1       3.671  -1.664   1.190  0.00  0.00    -0.274 OA
ATOM     18  HN  UNL d   1       3.528   0.088  -1.528  1.00  0.00     0.162 HD
BRANCH  16  19
ATOM     19  C   UNL d   1       5.070   0.187   0.666  0.00  0.00     0.098 C 
ATOM     20  C   UNL d   1       4.506   1.422   1.341  0.00  0.00     0.014 C 
ENDBRANCH  16  19
ENDBRANCH  14  15
ENDBRANCH  13  14
ENDBRANCH   1  13
TORSDOF 4
