REMARK  5 active torsions:
REMARK  status: ('A' for Active; 'I' for Inactive)
REMARK    1  A    between atoms: C_2  and  C_3 
REMARK    2  A    between atoms: C_3  and  C_5 
REMARK    3  A    between atoms: N_11  and  C_19 
REMARK    4  A    between atoms: C_19  and  C_20 
REMARK    5  A    between atoms: C_20  and  N_24 
ROOT
ATOM      1  C   UNL d   1       2.675  -0.153   0.306  0.00  0.00     0.012 A 
ATOM      2  C   UNL d   1       2.769  -1.395   0.951  0.00  0.00     0.016 A 
ATOM      3  C   UNL d   1       1.621  -2.142   1.219  0.00  0.00     0.022 A 
ATOM      4  C   UNL d   1       0.367  -1.661   0.836  0.00  0.00     0.032 A 
ATOM      5  C   UNL d   1       0.256  -0.433   0.160  0.00  0.00     0.053 A 
ATOM      6  C   UNL d   1       1.416   0.314  -0.096  0.00  0.00     0.046 A 
ATOM      7  N   UNL d   1      -1.012  -0.023  -0.389  0.00  0.00    -0.343 N 
ATOM      8  C   UNL d   1      -1.940  -1.031  -0.836  0.00  0.00     0.052 A 
ATOM      9  C   UNL d   1      -2.730  -0.817  -1.976  0.00  0.00     0.031 A 
ATOM     10  C   UNL d   1      -3.514  -1.850  -2.498  0.00  0.00     0.002 A 
ATOM     11  C   UNL d   1      -3.506  -3.108  -1.891  0.00  0.00     0.002 A 
ATOM     12  C   UNL d   1      -2.731  -3.330  -0.750  0.00  0.00     0.021 A 
ATOM     13  C   UNL d   1      -1.958  -2.295  -0.217  0.00  0.00     0.032 A 
ATOM     14  S   UNL d   1      -1.109  -2.542   1.343  0.00  0.00    -0.086 SA
ENDROOT
BRANCH   7  15
ATOM     15  C   UNL d   1      -1.257   1.384  -0.700  0.00  0.00     0.164 C 
BRANCH  15  16
ATOM     16  C   UNL d   1      -1.597   2.159   0.574  0.00  0.00     0.236 C 
ATOM     17  C   UNL d   1      -3.033   1.816   0.960  0.00  0.00     0.044 C 
BRANCH  16  18
ATOM     18  N   UNL d   1      -1.443   3.605   0.363  0.00  0.00     0.085 N 
ATOM     19  C   UNL d   1      -0.045   3.884   0.065  0.00  0.00     0.310 C 
ATOM     20  C   UNL d   1      -1.702   4.288   1.623  0.00  0.00     0.310 C 
ENDBRANCH  16  18
ENDBRANCH  15  16
ENDBRANCH   7  15
BRANCH   1  21
ATOM     21  C   UNL d   1       3.885   0.648   0.031  0.00  0.00     0.159 C 
ATOM     22  O   UNL d   1       3.787   1.758  -0.557  0.00  0.00    -0.292 OA
BRANCH  21  23
ATOM     23  C   UNL d   1       5.236   0.181   0.463  0.00  0.00     0.079 C 
ATOM     24  C   UNL d   1       5.564   0.742   1.833  0.00  0.00     0.013 C 
ENDBRANCH  21  23
ENDBRANCH   1  21
TORSDOF 5
