REMARK  15 active torsions:
REMARK  status: ('A' for Active; 'I' for Inactive)
REMARK    1  A    between atoms: C_2  and  N_3 
REMARK    2  A    between atoms: N_3  and  C_4 
REMARK    3  A    between atoms: N_3  and  C_6 
REMARK    4  A    between atoms: N_3  and  C_31 
REMARK    5  A    between atoms: C_6  and  C_7 
REMARK    6  A    between atoms: C_7  and  N_8 
REMARK       I    between atoms: N_8  and  C_10 
REMARK    7  A    between atoms: C_10  and  C_12 
REMARK       I    between atoms: C_12  and  N_14 
REMARK    8  A    between atoms: N_14  and  C_16 
REMARK    9  A    between atoms: C_16  and  C_17 
REMARK   10  A    between atoms: C_17  and  N_18 
REMARK   11  A    between atoms: N_18  and  C_19 
REMARK   12  A    between atoms: N_18  and  C_21 
REMARK   13  A    between atoms: N_18  and  C_23 
REMARK   14  A    between atoms: C_23  and  C_24 
REMARK   15  A    between atoms: C_31  and  C_32 
ROOT
ATOM      1  N   UNL d   1       0.876   1.299  -0.015  0.00  0.00    -0.351 N 
ATOM      2  HN  UNL d   1       0.579   1.422   0.953  1.00  0.00     0.162 HD
ATOM      3  C   UNL d   1      -0.110   0.972  -0.999  0.00  0.00     0.309 C 
ATOM      4  O   UNL d   1       0.219   0.842  -2.210  0.00  0.00    -0.262 OA
ENDROOT
BRANCH   3   5
ATOM      5  C   UNL d   1      -1.509   0.788  -0.599  0.00  0.00     0.309 C 
ATOM      6  O   UNL d   1      -1.838   0.921   0.610  0.00  0.00    -0.262 OA
ATOM      7  N   UNL d   1      -2.495   0.463  -1.583  0.00  0.00    -0.351 N 
ATOM      8  HN  UNL d   1      -2.204   0.392  -2.559  1.00  0.00     0.162 HD
BRANCH   7   9
ATOM      9  C   UNL d   1      -3.893   0.228  -1.257  0.00  0.00     0.151 C 
BRANCH   9  10
ATOM     10  C   UNL d   1      -4.051  -1.133  -0.573  0.00  0.00     0.257 C 
BRANCH  10  11
ATOM     11  N   UNL d   1      -5.463  -1.530  -0.382  0.00  0.00    -0.062 N 
BRANCH  11  12
ATOM     12  C   UNL d   1      -6.213  -1.550  -1.651  0.00  0.00     0.233 C 
ATOM     13  C   UNL d   1      -5.526  -2.326  -2.773  0.00  0.00     0.035 C 
ENDBRANCH  11  12
BRANCH  11  14
ATOM     14  C   UNL d   1      -5.565  -2.853   0.267  0.00  0.00     0.233 C 
ATOM     15  C   UNL d   1      -4.672  -3.928  -0.350  0.00  0.00     0.035 C 
ENDBRANCH  11  14
BRANCH  11  16
ATOM     16  C   UNL d   1      -6.160  -0.543   0.466  0.00  0.00     0.277 C 
BRANCH  16  17
ATOM     17  C   UNL d   1      -5.672  -0.475   1.894  0.00  0.00    -0.011 A 
ATOM     18  C   UNL d   1      -6.387  -1.097   2.937  0.00  0.00     0.042 A 
ATOM     19  C   UNL d   1      -5.915  -1.011   4.251  0.00  0.00     0.024 A 
ATOM     20 CL   UNL d   1      -7.881  -1.972   2.638  0.00  0.00    -0.084 Cl
ATOM     21  C   UNL d   1      -4.744  -0.304   4.535  0.00  0.00     0.002 A 
ATOM     22  C   UNL d   1      -4.041   0.324   3.505  0.00  0.00     0.001 A 
ATOM     23  C   UNL d   1      -4.506   0.241   2.191  0.00  0.00     0.010 A 
ENDBRANCH  16  17
ENDBRANCH  11  16
ENDBRANCH  10  11
ENDBRANCH   9  10
ENDBRANCH   7   9
ENDBRANCH   3   5
BRANCH   1  24
ATOM     24  C   UNL d   1       2.284   1.462  -0.342  0.00  0.00     0.151 C 
BRANCH  24  25
ATOM     25  C   UNL d   1       2.920   0.096  -0.614  0.00  0.00     0.257 C 
BRANCH  25  26
ATOM     26  N   UNL d   1       4.335   0.183  -1.022  0.00  0.00    -0.062 N 
BRANCH  26  27
ATOM     27  C   UNL d   1       4.458   0.983  -2.257  0.00  0.00     0.233 C 
ATOM     28  C   UNL d   1       3.662   0.416  -3.433  0.00  0.00     0.035 C 
ENDBRANCH  26  27
BRANCH  26  29
ATOM     29  C   UNL d   1       4.839  -1.178  -1.284  0.00  0.00     0.233 C 
ATOM     30  C   UNL d   1       4.759  -2.101  -0.068  0.00  0.00     0.035 C 
ENDBRANCH  26  29
BRANCH  26  31
ATOM     31  C   UNL d   1       5.104   0.815   0.071  0.00  0.00     0.277 C 
BRANCH  31  32
ATOM     32  C   UNL d   1       6.545   1.111  -0.264  0.00  0.00    -0.011 A 
ATOM     33  C   UNL d   1       6.956   2.410  -0.622  0.00  0.00     0.042 A 
ATOM     34  C   UNL d   1       8.299   2.657  -0.923  0.00  0.00     0.024 A 
ATOM     35 CL   UNL d   1       5.821   3.751  -0.687  0.00  0.00    -0.084 Cl
ATOM     36  C   UNL d   1       9.236   1.623  -0.865  0.00  0.00     0.002 A 
ATOM     37  C   UNL d   1       8.834   0.336  -0.500  0.00  0.00     0.001 A 
ATOM     38  C   UNL d   1       7.494   0.083  -0.198  0.00  0.00     0.010 A 
ENDBRANCH  31  32
ENDBRANCH  26  31
ENDBRANCH  25  26
ENDBRANCH  24  25
ENDBRANCH   1  24
TORSDOF 15
