REMARK  8 active torsions:
REMARK  status: ('A' for Active; 'I' for Inactive)
REMARK    1  A    between atoms: C_2  and  N_3 
REMARK    2  A    between atoms: N_3  and  C_4 
REMARK    3  A    between atoms: N_3  and  C_6 
REMARK    4  A    between atoms: C_6  and  C_7 
REMARK    5  A    between atoms: C_7  and  N_8 
REMARK       I    between atoms: N_8  and  C_10 
REMARK    6  A    between atoms: C_10  and  C_12 
REMARK    7  A    between atoms: C_13  and  O_14 
REMARK    8  A    between atoms: C_18  and  S_20 
ROOT
ATOM      1  C   UNL d   1      -0.991  -0.525  -0.402  0.00  0.00     0.066 A 
ATOM      2  C   UNL d   1      -1.228  -0.562  -1.798  0.00  0.00     0.084 A 
ATOM      3  C   UNL d   1      -2.539  -0.396  -2.279  0.00  0.00     0.039 A 
ATOM      4  C   UNL d   1      -3.603  -0.196  -1.400  0.00  0.00     0.026 A 
ATOM      5  C   UNL d   1      -3.374  -0.161  -0.025  0.00  0.00     0.060 A 
ATOM      6  C   UNL d   1      -2.076  -0.322   0.466  0.00  0.00     0.043 A 
ENDROOT
BRANCH   1   7
ATOM      7  C   UNL d   1       0.359  -0.690   0.191  0.00  0.00     0.254 C 
ATOM      8  N   UNL d   1       1.505  -0.921  -0.635  0.00  0.00    -0.355 N 
ATOM      9  HN  UNL d   1       1.374  -0.995  -1.644  1.00  0.00     0.162 HD
ATOM     10  O   UNL d   1       0.500  -0.630   1.444  0.00  0.00    -0.268 OA
BRANCH   8  11
ATOM     11  C   UNL d   1       2.850  -1.054  -0.096  0.00  0.00     0.153 C 
BRANCH  11  12
ATOM     12  C   UNL d   1       3.376   0.316   0.344  0.00  0.00     0.292 C 
BRANCH  12  13
ATOM     13  N   UNL d   1       4.713   0.263   0.952  0.00  0.00     0.089 N 
BRANCH  13  14
ATOM     14  C   UNL d   1       5.669  -0.293   0.002  0.00  0.00     0.268 C 
ATOM     15  C   UNL d   1       6.310   0.823  -0.799  0.00  0.00     0.037 C 
ENDBRANCH  13  14
BRANCH  13  16
ATOM     16  C   UNL d   1       4.691  -0.600   2.127  0.00  0.00     0.268 C 
ATOM     17  C   UNL d   1       4.364   0.217   3.362  0.00  0.00     0.037 C 
ENDBRANCH  13  16
ENDBRANCH  12  13
ENDBRANCH  11  12
ENDBRANCH   8  11
ENDBRANCH   1   7
BRANCH   2  18
ATOM     18  O   UNL d   1      -0.171  -0.762  -2.694  0.00  0.00    -0.355 OA
ATOM     19  C   UNL d   1      -0.347  -0.807  -4.103  0.00  0.00     0.210 C 
ENDBRANCH   2  18
BRANCH   5  20
ATOM     20  S   UNL d   1      -4.707   0.103   1.084  0.00  0.00     0.171 S 
ATOM     21  O   UNL d   1      -5.976  -0.441   0.490  0.00  0.00    -0.223 OA
ATOM     22  O   UNL d   1      -4.434  -0.606   2.381  0.00  0.00    -0.223 OA
ATOM     23  C   UNL d   1      -4.893   1.844   1.388  0.00  0.00     0.167 C 
ENDBRANCH   5  20
TORSDOF 8
