REMARK  5 active torsions:
REMARK  status: ('A' for Active; 'I' for Inactive)
REMARK    1  A    between atoms: C_2  and  C_3 
REMARK    2  A    between atoms: C_3  and  O_4 
REMARK    3  A    between atoms: O_4  and  C_5 
REMARK    4  A    between atoms: C_8  and  C_12 
REMARK    5  A    between atoms: C_12  and  C_13 
ROOT
ATOM      1  C   UNL d   1       1.057   0.289  -0.111  0.00  0.00     0.090 A 
ATOM      2  C   UNL d   1       0.215   0.230   1.013  0.00  0.00     0.039 A 
ATOM      3  C   UNL d   1      -0.997  -0.461   0.952  0.00  0.00     0.010 A 
ATOM      4  C   UNL d   1      -1.378  -1.103  -0.230  0.00  0.00    -0.046 A 
ATOM      5  C   UNL d   1      -0.548  -1.044  -1.353  0.00  0.00     0.034 A 
ATOM      6  C   UNL d   1       0.667  -0.353  -1.296  0.00  0.00     0.068 A 
ATOM      7 CL   UNL d   1       1.685  -0.303  -2.724  0.00  0.00    -0.081 Cl
ENDROOT
BRANCH   1   8
ATOM      8  O   UNL d   1       2.275   0.977  -0.068  0.00  0.00    -0.346 OA
BRANCH   8   9
ATOM      9  C   UNL d   1       2.740   1.649   1.096  0.00  0.00     0.202 C 
BRANCH   9  10
ATOM     10  C   UNL d   1       4.067   2.275   0.826  0.00  0.00    -0.011 C 
ATOM     11  C   UNL d   1       5.140   1.519   0.609  0.00  0.00     0.009 C 
ENDBRANCH   9  10
ENDBRANCH   8   9
ENDBRANCH   1   8
BRANCH   4  12
ATOM     12  C   UNL d   1      -2.680  -1.825  -0.301  0.00  0.00     0.151 C 
BRANCH  12  13
ATOM     13  C   UNL d   1      -3.763  -0.908  -0.758  0.00  0.00     0.176 C 
ATOM     14  O   UNL d   1      -4.048  -0.831  -1.981  0.00  0.00    -0.648 OA
ATOM     15  O   UNL d   1      -4.433  -0.111   0.161  0.00  0.00    -0.648 OA
ENDBRANCH  12  13
ENDBRANCH   4  12
TORSDOF 5
