REMARK  3 active torsions:
REMARK  status: ('A' for Active; 'I' for Inactive)
REMARK    1  A    between atoms: C_2  and  C_3 
REMARK       I    between atoms: C_2  and  N_16 
REMARK    2  A    between atoms: C_4  and  C_5 
REMARK    3  A    between atoms: C_6  and  C_7 
ROOT
ATOM      1  C   UNL d   1      -0.085   0.547  -0.119  0.00  0.00     0.001 C 
ATOM      2  C   UNL d   1      -0.822  -0.557  -0.076  0.00  0.00     0.011 C 
ENDROOT
BRANCH   1   3
ATOM      3  C   UNL d   1       1.369   0.451  -0.125  0.00  0.00     0.005 C 
ATOM      4  C   UNL d   1       2.107   1.552  -0.167  0.00  0.00     0.074 C 
BRANCH   4   5
ATOM      5  C   UNL d   1       3.581   1.543  -0.176  0.00  0.00     0.243 C 
ATOM      6  O   UNL d   1       4.172   2.630  -0.415  0.00  0.00    -0.268 OA
ATOM      7  N   UNL d   1       4.355   0.351   0.053  0.00  0.00    -0.349 N 
ATOM      8  C   UNL d   1       3.876  -0.697   0.954  0.00  0.00     0.126 C 
ATOM      9  C   UNL d   1       5.772   0.337  -0.305  0.00  0.00     0.126 C 
ATOM     10  C   UNL d   1       4.263  -2.069   0.410  0.00  0.00     0.020 C 
ATOM     11  C   UNL d   1       5.765  -2.122   0.147  0.00  0.00     0.003 C 
ATOM     12  C   UNL d   1       6.160  -1.035  -0.848  0.00  0.00     0.020 C 
ENDBRANCH   4   5
ENDBRANCH   1   3
BRANCH   2  13
ATOM     13  C   UNL d   1      -2.291  -0.531  -0.067  0.00  0.00    -0.033 A 
ATOM     14  C   UNL d   1      -3.010   0.685  -0.104  0.00  0.00     0.051 A 
ATOM     15  C   UNL d   1      -4.400   0.617  -0.092  0.00  0.00     0.105 A 
ATOM     16  C   UNL d   1      -5.063  -0.567  -0.046  0.00  0.00     0.105 A 
ATOM     17  O   UNL d   1      -5.311   1.653  -0.121  0.00  0.00    -0.323 OA
ATOM     18  O   UNL d   1      -6.423  -0.332  -0.045  0.00  0.00    -0.323 OA
ATOM     19  C   UNL d   1      -4.396  -1.787  -0.009  0.00  0.00     0.040 A 
ATOM     20  C   UNL d   1      -6.629   1.088  -0.093  0.00  0.00     0.352 A 
ATOM     21  C   UNL d   1      -2.989  -1.759  -0.019  0.00  0.00     0.014 A 
ENDBRANCH   2  13
TORSDOF 3
