REMARK  5 active torsions:
REMARK  status: ('A' for Active; 'I' for Inactive)
REMARK    1  A    between atoms: C_6  and  C_8 
REMARK    2  A    between atoms: C_8  and  N_27 
REMARK    3  A    between atoms: C_13  and  C_14 
REMARK    4  A    between atoms: C_13  and  C_20 
REMARK    5  A    between atoms: C_13  and  N_28 
ROOT
ATOM      1  C   UNL d   1       1.160   0.624   0.396  0.00  0.00     0.303 C 
ATOM      2  C   UNL d   1       0.511   0.698  -0.995  0.00  0.00     0.304 C 
ATOM      3  C   UNL d   1       0.144  -1.663  -0.970  0.00  0.00     0.304 C 
ATOM      4  C   UNL d   1       0.792  -1.761   0.420  0.00  0.00     0.303 C 
ATOM      5  N   UNL d   1       1.764  -0.688   0.657  0.00  0.00     0.096 N 
ATOM      6  N   UNL d   1      -0.495  -0.357  -1.191  0.00  0.00     0.105 N 
ENDROOT
BRANCH   6   7
ATOM      7  C   UNL d   1      -1.657  -0.168  -0.295  0.00  0.00     0.289 C 
BRANCH   7   8
ATOM      8  C   UNL d   1      -2.684  -1.258  -0.450  0.00  0.00    -0.021 A 
ATOM      9  C   UNL d   1      -3.189  -1.608  -1.712  0.00  0.00     0.010 A 
ATOM     10  C   UNL d   1      -4.151  -2.616  -1.828  0.00  0.00     0.001 A 
ATOM     11  C   UNL d   1      -4.614  -3.275  -0.685  0.00  0.00     0.000 A 
ATOM     12  C   UNL d   1      -4.117  -2.926   0.574  0.00  0.00     0.001 A 
ATOM     13  C   UNL d   1      -3.155  -1.918   0.691  0.00  0.00     0.010 A 
ENDBRANCH   7   8
BRANCH   7  14
ATOM     14  C   UNL d   1      -2.303   1.181  -0.470  0.00  0.00    -0.021 A 
ATOM     15  C   UNL d   1      -2.682   1.647  -1.739  0.00  0.00     0.011 A 
ATOM     16  C   UNL d   1      -3.290   2.898  -1.875  0.00  0.00     0.024 A 
ATOM     17  C   UNL d   1      -3.525   3.687  -0.745  0.00  0.00     0.034 A 
ATOM     18  C   UNL d   1      -3.153   3.224   0.521  0.00  0.00     0.024 A 
ATOM     19 CL   UNL d   1      -4.286   5.253  -0.914  0.00  0.00    -0.084 Cl
ATOM     20  C   UNL d   1      -2.545   1.973   0.658  0.00  0.00     0.011 A 
ENDBRANCH   7  14
ENDBRANCH   6   7
BRANCH   5  21
ATOM     21  C   UNL d   1       2.931  -0.885  -0.201  0.00  0.00     0.311 C 
BRANCH  21  22
ATOM     22  C   UNL d   1       4.168  -0.452   0.507  0.00  0.00    -0.030 A 
ATOM     23  C   UNL d   1       4.668   0.841   0.316  0.00  0.00     0.009 A 
ATOM     24  C   UNL d   1       5.818   1.254   0.997  0.00  0.00     0.001 A 
ATOM     25  C   UNL d   1       6.465   0.377   1.873  0.00  0.00     0.007 A 
ATOM     26  C   UNL d   1       5.962  -0.913   2.069  0.00  0.00    -0.061 A 
ATOM     27  C   UNL d   1       6.648  -1.843   3.003  0.00  0.00     0.048 C 
ATOM     28  C   UNL d   1       4.813  -1.326   1.389  0.00  0.00     0.015 A 
ENDBRANCH  21  22
ENDBRANCH   5  21
TORSDOF 5
