REMARK  8 active torsions:
REMARK  status: ('A' for Active; 'I' for Inactive)
REMARK    1  A    between atoms: C_4  and  O_34 
REMARK    2  A    between atoms: C_10  and  C_11 
REMARK    3  A    between atoms: C_10  and  O_22 
REMARK    4  A    between atoms: C_11  and  C_13 
REMARK    5  A    between atoms: C_13  and  O_14 
REMARK    6  A    between atoms: O_14  and  C_15 
REMARK    7  A    between atoms: C_15  and  C_17 
REMARK    8  A    between atoms: C_17  and  C_18 
ROOT
ATOM      1  C   UNL d   1       1.102   0.403   0.319  0.00  0.00     0.019 C 
ATOM      2  C   UNL d   1       0.234   0.117  -0.920  0.00  0.00     0.001 C 
ATOM      3  C   UNL d   1      -0.299   1.425  -1.511  0.00  0.00     0.045 C 
ATOM      4  C   UNL d   1      -1.232   2.165  -0.535  0.00  0.00     0.124 C 
ATOM      5  C   UNL d   1      -2.285   1.272   0.169  0.00  0.00     0.035 C 
ATOM      6  C   UNL d   1      -1.821  -0.168   0.557  0.00  0.00    -0.002 C 
ATOM      7  C   UNL d   1      -0.955  -0.746  -0.562  0.00  0.00     0.002 C 
ATOM      8  C   UNL d   1      -0.401  -2.146  -0.386  0.00  0.00     0.009 C 
ATOM      9  C   UNL d   1       0.769  -2.211  -1.368  0.00  0.00     0.047 C 
ATOM     10  C   UNL d   1       0.974  -0.792  -1.926  0.00  0.00     0.128 C 
ATOM     11  C   UNL d   1      -2.995  -1.129   0.810  0.00  0.00     0.010 C 
ATOM     12  C   UNL d   1      -4.221  -0.458   1.423  0.00  0.00     0.036 C 
ATOM     13  C   UNL d   1      -4.661   0.731   0.620  0.00  0.00    -0.064 C 
ATOM     14  C   UNL d   1      -5.882   1.224   0.849  0.00  0.00     0.058 C 
ATOM     15  C   UNL d   1      -6.305   2.479   0.219  0.00  0.00     0.172 C 
ATOM     16  O   UNL d   1      -7.493   2.879   0.330  0.00  0.00    -0.289 OA
ATOM     17  C   UNL d   1      -5.302   3.306  -0.458  0.00  0.00     0.052 C 
ATOM     18  C   UNL d   1      -4.086   2.810  -0.696  0.00  0.00    -0.009 C 
ATOM     19  C   UNL d   1      -3.718   1.367  -0.399  0.00  0.00     0.004 C 
ATOM     20  C   UNL d   1      -3.815   0.601  -1.714  0.00  0.00     0.025 C 
ENDROOT
BRANCH  10  21
ATOM     21  C   UNL d   1       2.439  -0.441  -2.110  0.00  0.00     0.185 C 
ATOM     22  O   UNL d   1       2.747   0.698  -2.430  0.00  0.00    -0.292 OA
BRANCH  21  23
ATOM     23  C   UNL d   1       3.522  -1.470  -1.972  0.00  0.00     0.260 C 
BRANCH  23  24
ATOM     24  O   UNL d   1       4.458  -1.087  -0.972  0.00  0.00    -0.314 OA
BRANCH  24  25
ATOM     25  C   UNL d   1       4.244  -1.327   0.388  0.00  0.00     0.259 C 
ATOM     26  O   UNL d   1       3.210  -1.931   0.784  0.00  0.00    -0.265 OA
BRANCH  25  27
ATOM     27  C   UNL d   1       5.276  -0.899   1.384  0.00  0.00     0.119 C 
BRANCH  27  28
ATOM     28  C   UNL d   1       6.373  -1.944   1.614  0.00  0.00    -0.043 C 
ATOM     29  C   UNL d   1       7.148  -2.207   0.334  0.00  0.00     0.015 C 
ATOM     30  C   UNL d   1       7.332  -1.410   2.656  0.00  0.00     0.015 C 
ATOM     31  C   UNL d   1       5.786  -3.246   2.128  0.00  0.00     0.015 C 
ENDBRANCH  27  28
ENDBRANCH  25  27
ENDBRANCH  24  25
ENDBRANCH  23  24
ENDBRANCH  21  23
ENDBRANCH  10  21
BRANCH  10  32
ATOM     32  O   UNL d   1       0.350  -0.731  -3.177  0.00  0.00    -0.381 OA
ATOM     33  HO  UNL d   1       0.806  -1.290  -3.796  1.00  0.00     0.211 HD
ENDBRANCH  10  32
BRANCH   4  34
ATOM     34  O   UNL d   1      -0.491   2.868   0.414  0.00  0.00    -0.395 OA
ATOM     35  HO  UNL d   1      -1.067   3.325   1.016  1.00  0.00     0.210 HD
ENDBRANCH   4  34
TORSDOF 8
