REMARK  2 active torsions:
REMARK  status: ('A' for Active; 'I' for Inactive)
REMARK    1  A    between atoms: C_10  and  O_11 
REMARK    2  A    between atoms: C_19  and  O_21 
ROOT
ATOM      1  C   UNL d   1      -3.627   2.024  -0.062  0.00  0.00     0.018 C 
ATOM      2  C   UNL d   1      -2.792   0.759  -0.067  0.00  0.00    -0.014 C 
ATOM      3  C   UNL d   1      -2.147   0.628  -1.459  0.00  0.00     0.012 C 
ATOM      4  C   UNL d   1      -1.091  -0.477  -1.533  0.00  0.00     0.007 C 
ATOM      5  C   UNL d   1      -0.119  -0.509  -0.332  0.00  0.00     0.003 C 
ATOM      6  C   UNL d   1      -0.292   0.680   0.629  0.00  0.00    -0.001 C 
ATOM      7  C   UNL d   1      -1.752   0.859   1.068  0.00  0.00     0.001 C 
ATOM      8  C   UNL d   1      -2.120  -0.200   2.095  0.00  0.00     0.008 C 
ATOM      9  C   UNL d   1      -2.984  -1.209   1.369  0.00  0.00     0.033 C 
ATOM     10  C   UNL d   1      -3.707  -0.415   0.306  0.00  0.00     0.126 C 
ATOM     11  C   UNL d   1       0.245   1.950  -0.022  0.00  0.00     0.033 C 
ATOM     12  C   UNL d   1       1.671   1.757  -0.444  0.00  0.00    -0.023 C 
ATOM     13  C   UNL d   1       2.160   0.568  -0.834  0.00  0.00    -0.072 C 
ATOM     14  C   UNL d   1       1.373  -0.733  -0.707  0.00  0.00    -0.017 C 
ATOM     15  C   UNL d   1       2.025  -1.551   0.418  0.00  0.00     0.016 C 
ATOM     16  C   UNL d   1       3.537  -1.735   0.207  0.00  0.00     0.033 C 
ATOM     17  C   UNL d   1       4.263  -0.393   0.054  0.00  0.00     0.122 C 
ATOM     18  C   UNL d   1       3.639   0.457  -1.057  0.00  0.00     0.066 C 
ATOM     19  C   UNL d   1       1.497  -1.534  -2.006  0.00  0.00     0.020 C 
ENDROOT
BRANCH  10  20
ATOM     20  O   UNL d   1      -4.029  -1.232  -0.781  0.00  0.00    -0.395 OA
ATOM     21  HO  UNL d   1      -4.595  -1.959  -0.550  1.00  0.00     0.210 HD
ENDBRANCH  10  20
BRANCH  17  22
ATOM     22  O   UNL d   1       4.250   0.304   1.264  0.00  0.00    -0.395 OA
ATOM     23  HO  UNL d   1       4.700   1.136   1.169  1.00  0.00     0.210 HD
ENDBRANCH  17  22
TORSDOF 2
