REMARK  6 active torsions:
REMARK  status: ('A' for Active; 'I' for Inactive)
REMARK    1  A    between atoms: C_2  and  O_4 
REMARK    2  A    between atoms: C_5  and  O_4 
REMARK    3  A    between atoms: C_14  and  N_15 
REMARK    4  A    between atoms: C_28  and  N_34 
REMARK    5  A    between atoms: C_29  and  O_30 
REMARK    6  A    between atoms: O_30  and  C_31 
ROOT
ATOM      1  C   UNL d   1       4.247  -0.785  -0.402  0.00  0.00     0.163 C 
ATOM      2  C   UNL d   1       3.790  -2.245  -0.460  0.00  0.00     0.040 C 
ATOM      3  C   UNL d   1       2.267  -2.371  -0.454  0.00  0.00    -0.004 C 
ATOM      4  C   UNL d   1       1.699  -1.859  -1.778  0.00  0.00     0.006 C 
ATOM      5  C   UNL d   1       0.192  -2.034  -1.803  0.00  0.00     0.006 C 
ATOM      6  C   UNL d   1      -0.446  -1.240  -0.670  0.00  0.00    -0.005 C 
ATOM      7  C   UNL d   1       0.096  -1.723   0.690  0.00  0.00    -0.002 C 
ATOM      8  C   UNL d   1       1.642  -1.672   0.774  0.00  0.00    -0.034 C 
ATOM      9  C   UNL d   1       2.129  -0.216   0.850  0.00  0.00     0.046 C 
ATOM     10  C   UNL d   1       3.671  -0.081   0.859  0.00  0.00     0.220 C 
ATOM     11  C   UNL d   1       2.072  -2.422   2.030  0.00  0.00     0.016 C 
ATOM     12  C   UNL d   1      -0.571  -1.002   1.879  0.00  0.00     0.007 C 
ATOM     13  C   UNL d   1      -1.958  -0.431   1.564  0.00  0.00     0.012 C 
ATOM     14  C   UNL d   1      -2.741  -1.277   0.547  0.00  0.00    -0.011 C 
ATOM     15  C   UNL d   1      -1.971  -1.384  -0.775  0.00  0.00     0.003 C 
ATOM     16  C   UNL d   1      -2.522  -0.303  -1.679  0.00  0.00     0.042 C 
ATOM     17  C   UNL d   1      -3.973  -0.096  -1.256  0.00  0.00     0.220 C 
ATOM     18  C   UNL d   1      -4.094  -0.645   0.182  0.00  0.00     0.171 C 
ATOM     19  C   UNL d   1      -2.997  -2.670   1.103  0.00  0.00     0.018 C 
ENDROOT
BRANCH  10  20
ATOM     20  N   UNL d   1       4.098   1.340   1.022  0.00  0.00    -0.064 N 
ATOM     21  C   UNL d   1       3.365   1.938   2.160  0.00  0.00     0.237 C 
ATOM     22  C   UNL d   1       3.767   3.394   2.458  0.00  0.00     0.028 C 
ATOM     23  C   UNL d   1       5.253   3.656   2.222  0.00  0.00     0.003 C 
ATOM     24  C   UNL d   1       6.044   2.365   2.315  0.00  0.00     0.028 C 
ATOM     25  C   UNL d   1       5.562   1.385   1.240  0.00  0.00     0.237 C 
ATOM     26  C   UNL d   1       3.787   2.092  -0.196  0.00  0.00     0.273 C 
ENDBRANCH  10  20
BRANCH   1  27
ATOM     27  O   UNL d   1       5.671  -0.757  -0.415  0.00  0.00    -0.314 OA
BRANCH  27  28
ATOM     28  C   UNL d   1       6.409  -0.910  -1.588  0.00  0.00     0.255 C 
ATOM     29  C   UNL d   1       7.892  -0.852  -1.529  0.00  0.00     0.126 C 
ATOM     30  O   UNL d   1       5.836  -1.098  -2.697  0.00  0.00    -0.266 OA
ENDBRANCH  27  28
ENDBRANCH   1  27
BRANCH  18  31
ATOM     31  O   UNL d   1      -4.543   0.313   1.142  0.00  0.00    -0.313 OA
BRANCH  31  32
ATOM     32  C   UNL d   1      -5.217  -0.054   2.309  0.00  0.00     0.255 C 
ATOM     33  O   UNL d   1      -5.493  -1.259   2.546  0.00  0.00    -0.266 OA
ATOM     34  C   UNL d   1      -5.616   0.996   3.281  0.00  0.00     0.126 C 
ENDBRANCH  31  32
ENDBRANCH  18  31
BRANCH  17  35
ATOM     35  N   UNL d   1      -4.484   1.277  -1.512  0.00  0.00    -0.064 N 
ATOM     36  C   UNL d   1      -5.900   1.369  -1.094  0.00  0.00     0.237 C 
ATOM     37  C   UNL d   1      -6.874   0.968  -2.206  0.00  0.00     0.028 C 
ATOM     38  C   UNL d   1      -6.735   1.899  -3.414  0.00  0.00     0.003 C 
ATOM     39  C   UNL d   1      -5.347   2.536  -3.513  0.00  0.00     0.028 C 
ATOM     40  C   UNL d   1      -4.283   1.594  -2.943  0.00  0.00     0.237 C 
ATOM     41  C   UNL d   1      -3.727   2.265  -0.746  0.00  0.00     0.273 C 
ENDBRANCH  17  35
TORSDOF 6
