REMARK  1 active torsions:
REMARK  status: ('A' for Active; 'I' for Inactive)
REMARK    1  A    between atoms: C_9  and  N_18 
ROOT
ATOM      1  C   UNL d   1      -3.575  -2.489   1.551  0.00  0.00     0.002 A 
ATOM      2  C   UNL d   1      -4.465  -1.675   0.850  0.00  0.00     0.003 A 
ATOM      3  C   UNL d   1      -3.977  -0.737  -0.060  0.00  0.00     0.039 A 
ATOM      4  C   UNL d   1      -2.600  -0.590  -0.268  0.00  0.00     0.102 A 
ATOM      5  C   UNL d   1      -1.698  -1.414   0.437  0.00  0.00     0.068 A 
ATOM      6  C   UNL d   1      -2.202  -2.366   1.332  0.00  0.00     0.032 A 
ATOM      7  N   UNL d   1      -0.299  -1.469   0.143  0.00  0.00    -0.340 N 
ATOM      8  HN  UNL d   1       0.135  -2.379   0.295  1.00  0.00     0.167 HD
ATOM      9  C   UNL d   1       0.510  -0.543  -0.287  0.00  0.00     0.117 C 
ATOM     10  C   UNL d   1       0.102   0.879  -0.429  0.00  0.00     0.043 A 
ATOM     11  C   UNL d   1       1.058   1.869  -0.147  0.00  0.00     0.042 A 
ATOM     12  C   UNL d   1       0.785   3.219  -0.369  0.00  0.00     0.035 A 
ATOM     13  C   UNL d   1      -0.446   3.599  -0.900  0.00  0.00     0.026 A 
ATOM     14  C   UNL d   1      -1.409   2.630  -1.177  0.00  0.00     0.040 A 
ATOM     15  C   UNL d   1      -1.157   1.276  -0.926  0.00  0.00     0.090 A 
ATOM     16  O   UNL d   1      -2.186   0.375  -1.181  0.00  0.00    -0.308 OA
ATOM     17 CL   UNL d   1       1.998   4.428  -0.011  0.00  0.00    -0.084 Cl
ENDROOT
BRANCH   9  18
ATOM     18  N   UNL d   1       1.883  -0.906  -0.532  0.00  0.00    -0.363 N 
ATOM     19  C   UNL d   1       2.627  -0.274  -1.621  0.00  0.00     0.152 C 
ATOM     20  C   UNL d   1       4.105  -0.191  -1.250  0.00  0.00     0.252 C 
ATOM     21  N   UNL d   1       4.604  -1.518  -0.895  0.00  0.00    -0.072 N 
ATOM     22  C   UNL d   1       3.916  -1.962   0.315  0.00  0.00     0.252 C 
ATOM     23  HN2 UNL d   1       5.620  -1.542  -0.800  1.00  0.00     0.277 HD
ATOM     24  HN1 UNL d   1       4.521  -2.186  -1.662  1.00  0.00     0.277 HD
ATOM     25  C   UNL d   1       2.427  -2.142   0.031  0.00  0.00     0.152 C 
ENDBRANCH   9  18
TORSDOF 1
