REMARK  8 active torsions:
REMARK  status: ('A' for Active; 'I' for Inactive)
REMARK    1  A    between atoms: C_11  and  O_12 
REMARK    2  A    between atoms: C_15  and  O_36 
REMARK    3  A    between atoms: C_20  and  O_31 
REMARK    4  A    between atoms: C_22  and  C_23 
REMARK    5  A    between atoms: C_22  and  C_29 
REMARK    6  A    between atoms: C_23  and  C_24 
REMARK    7  A    between atoms: C_24  and  C_25 
REMARK    8  A    between atoms: O_31  and  C_32 
ROOT
ATOM      1  C   UNL d   1       6.482  -1.109  -0.781  0.00  0.00     0.013 C 
ATOM      2  C   UNL d   1       5.299  -0.187  -0.547  0.00  0.00     0.015 C 
ATOM      3  C   UNL d   1       4.276  -0.867   0.386  0.00  0.00     0.000 C 
ATOM      4  C   UNL d   1       3.535  -1.963  -0.393  0.00  0.00     0.007 C 
ATOM      5  C   UNL d   1       2.067  -1.643  -0.671  0.00  0.00     0.011 C 
ATOM      6  C   UNL d   1       1.797  -0.166  -1.028  0.00  0.00    -0.029 C 
ATOM      7  C   UNL d   1       2.351   0.789   0.105  0.00  0.00     0.032 C 
ATOM      8  C   UNL d   1       3.338   0.130   1.121  0.00  0.00    -0.033 C 
ATOM      9  C   UNL d   1       4.157   1.213   1.856  0.00  0.00     0.012 C 
ATOM     10  C   UNL d   1       5.631   1.308   1.461  0.00  0.00     0.033 C 
ATOM     11  C   UNL d   1       5.810   1.164  -0.044  0.00  0.00     0.122 C 
ATOM     12  C   UNL d   1       2.560  -0.624   2.193  0.00  0.00     0.016 C 
ATOM     13  C   UNL d   1       1.288   1.780   0.698  0.00  0.00     0.124 C 
ATOM     14  C   UNL d   1      -0.083   1.172   1.040  0.00  0.00     0.042 C 
ATOM     15  C   UNL d   1      -0.360  -0.064   0.182  0.00  0.00     0.029 C 
ATOM     16  C   UNL d   1       0.258   0.026  -1.207  0.00  0.00    -0.026 C 
ATOM     17  C   UNL d   1      -0.473  -1.064  -1.985  0.00  0.00     0.047 C 
ATOM     18  C   UNL d   1      -1.896  -1.094  -1.410  0.00  0.00     0.163 C 
ATOM     19  C   UNL d   1      -1.757  -0.565  -0.013  0.00  0.00    -0.033 C 
ATOM     20  C   UNL d   1      -2.654  -0.778   0.980  0.00  0.00     0.024 C 
ATOM     21  C   UNL d   1      -0.079   1.363  -1.895  0.00  0.00     0.016 C 
ATOM     22  C   UNL d   1       2.522   0.148  -2.335  0.00  0.00     0.016 C 
ENDROOT
BRANCH  18  23
ATOM     23  O   UNL d   1      -2.738  -0.227  -2.163  0.00  0.00    -0.312 OA
BRANCH  23  24
ATOM     24  C   UNL d   1      -3.243  -0.578  -3.417  0.00  0.00     0.255 C 
ATOM     25  O   UNL d   1      -2.989  -1.702  -3.925  0.00  0.00    -0.266 OA
ATOM     26  C   UNL d   1      -4.096   0.387  -4.157  0.00  0.00     0.126 C 
ENDBRANCH  23  24
ENDBRANCH  18  23
BRANCH  20  27
ATOM     27  C   UNL d   1      -2.334  -0.365   2.389  0.00  0.00     0.049 C 
BRANCH  27  28
ATOM     28  C   UNL d   1      -2.812   1.055   2.679  0.00  0.00     0.032 C 
BRANCH  28  29
ATOM     29  C   UNL d   1      -4.296   1.111   2.897  0.00  0.00    -0.024 C 
ATOM     30  C   UNL d   1      -4.897   0.684   4.014  0.00  0.00    -0.091 C 
ATOM     31  C   UNL d   1      -4.128   0.118   5.165  0.00  0.00     0.042 C 
ATOM     32  C   UNL d   1      -6.379   0.781   4.118  0.00  0.00     0.042 C 
ENDBRANCH  28  29
ENDBRANCH  27  28
ENDBRANCH  20  27
BRANCH  20  33
ATOM     33  C   UNL d   1      -3.959  -1.457   0.765  0.00  0.00     0.205 C 
ATOM     34  O   UNL d   1      -4.409  -1.674  -0.390  0.00  0.00    -0.644 OA
ATOM     35  O   UNL d   1      -4.711  -1.865   1.861  0.00  0.00    -0.644 OA
ENDBRANCH  20  33
BRANCH  13  36
ATOM     36  O   UNL d   1       1.763   2.561   1.751  0.00  0.00    -0.395 OA
ATOM     37  HO  UNL d   1       1.119   3.161   2.109  1.00  0.00     0.210 HD
ENDBRANCH  13  36
BRANCH  11  38
ATOM     38  O   UNL d   1       5.160   2.202  -0.714  0.00  0.00    -0.395 OA
ATOM     39  HO  UNL d   1       5.477   3.041  -0.401  1.00  0.00     0.210 HD
ENDBRANCH  11  38
TORSDOF 8
