REMARK  16 active torsions:
REMARK  status: ('A' for Active; 'I' for Inactive)
REMARK    1  A    between atoms: C_1  and  C_2 
REMARK    2  A    between atoms: C_1  and  C_10 
REMARK    3  A    between atoms: C_2  and  C_3 
REMARK    4  A    between atoms: C_3  and  C_4 
REMARK    5  A    between atoms: C_4  and  C_5 
REMARK    6  A    between atoms: C_4  and  O_8 
REMARK    7  A    between atoms: C_10  and  C_11 
REMARK    8  A    between atoms: C_11  and  C_12 
REMARK    9  A    between atoms: C_12  and  C_13 
REMARK   10  A    between atoms: C_14  and  C_15 
REMARK   11  A    between atoms: C_15  and  C_16 
REMARK   12  A    between atoms: C_16  and  C_17 
REMARK   13  A    between atoms: C_17  and  C_18 
REMARK   14  A    between atoms: C_18  and  C_19 
REMARK   15  A    between atoms: C_19  and  C_20 
REMARK   16  A    between atoms: C_20  and  C_21 
ROOT
ATOM      1  C   UNL d   1       1.206  -0.217  -2.459  0.00  0.00     0.004 C 
ENDROOT
BRANCH   1   2
ATOM      2  C   UNL d   1       1.443   0.138  -0.999  0.00  0.00     0.000 C 
BRANCH   2   3
ATOM      3  C   UNL d   1       1.759  -1.105  -0.184  0.00  0.00     0.000 C 
BRANCH   3   4
ATOM      4  C   UNL d   1       1.931  -0.755   1.286  0.00  0.00     0.003 C 
BRANCH   4   5
ATOM      5  C   UNL d   1       3.335  -0.238   1.571  0.00  0.00     0.043 C 
BRANCH   5   6
ATOM      6  C   UNL d   1       3.464   1.237   1.223  0.00  0.00     0.218 C 
BRANCH   6   7
ATOM      7  C   UNL d   1       4.897   1.649   1.258  0.00  0.00     0.203 C 
ATOM      8  O   UNL d   1       5.561   1.927   0.071  0.00  0.00    -0.646 OA
ATOM      9  O   UNL d   1       5.515   1.727   2.354  0.00  0.00    -0.646 OA
ENDBRANCH   6   7
BRANCH   6  10
ATOM     10  O   UNL d   1       2.724   2.009   2.120  0.00  0.00    -0.385 OA
ATOM     11  HO  UNL d   1       2.805   2.931   1.903  1.00  0.00     0.210 HD
ENDBRANCH   6  10
ENDBRANCH   5   6
ENDBRANCH   4   5
ENDBRANCH   3   4
ENDBRANCH   2   3
ENDBRANCH   1   2
BRANCH   1  12
ATOM     12  C   UNL d   1      -0.186  -0.792  -2.654  0.00  0.00     0.027 C 
BRANCH  12  13
ATOM     13  C   UNL d   1      -0.162  -2.281  -2.497  0.00  0.00    -0.031 C 
ATOM     14  C   UNL d   1      -1.270  -3.010  -2.325  0.00  0.00    -0.031 C 
BRANCH  14  15
ATOM     15  C   UNL d   1      -2.642  -2.411  -2.232  0.00  0.00     0.027 C 
BRANCH  15  16
ATOM     16  C   UNL d   1      -3.039  -2.189  -0.780  0.00  0.00     0.004 C 
BRANCH  16  17
ATOM     17  C   UNL d   1      -2.338  -0.969  -0.204  0.00  0.00     0.000 C 
BRANCH  17  18
ATOM     18  C   UNL d   1      -2.724  -0.772   1.254  0.00  0.00     0.000 C 
BRANCH  18  19
ATOM     19  C   UNL d   1      -4.134  -0.216   1.381  0.00  0.00     0.000 C 
BRANCH  19  20
ATOM     20  C   UNL d   1      -4.162   1.250   0.994  0.00  0.00    -0.000 C 
BRANCH  20  21
ATOM     21  C   UNL d   1      -5.576   1.777   1.112  0.00  0.00    -0.005 C 
ATOM     22  C   UNL d   1      -5.603   3.240   0.725  0.00  0.00     0.005 C 
ENDBRANCH  20  21
ENDBRANCH  19  20
ENDBRANCH  18  19
ENDBRANCH  17  18
ENDBRANCH  16  17
ENDBRANCH  15  16
ENDBRANCH  14  15
ENDBRANCH  12  13
ENDBRANCH   1  12
TORSDOF 16
