REMARK  7 active torsions:
REMARK  status: ('A' for Active; 'I' for Inactive)
REMARK       I    between atoms: N_2  and  C_3 
REMARK    1  A    between atoms: C_3  and  C_5 
REMARK    2  A    between atoms: C_8  and  N_9 
REMARK       I    between atoms: N_9  and  C_10 
REMARK    3  A    between atoms: C_10  and  C_12 
REMARK    4  A    between atoms: C_16  and  N_17 
REMARK    5  A    between atoms: N_17  and  C_18 
REMARK    6  A    between atoms: C_22  and  C_23 
REMARK    7  A    between atoms: C_29  and  O_30 
ROOT
ATOM      1  C   UNL d   1       1.452   1.838   0.874  0.00  0.00     0.178 A 
ATOM      2  N   UNL d   1       2.480   2.053   0.006  0.00  0.00    -0.140 NA
ATOM      3  N   UNL d   1       2.883   1.122  -0.859  0.00  0.00    -0.128 NA
ATOM      4  C   UNL d   1       2.289  -0.098  -0.918  0.00  0.00     0.188 A 
ATOM      5  C   UNL d   1       1.237  -0.381  -0.056  0.00  0.00     0.061 A 
ATOM      6  C   UNL d   1       0.792   0.591   0.845  0.00  0.00     0.109 A 
ENDROOT
BRANCH   6   7
ATOM      7  N   UNL d   1      -0.270   0.291   1.762  0.00  0.00    -0.242 NA
BRANCH   7   8
ATOM      8  C   UNL d   1      -1.212  -0.780   1.621  0.00  0.00     0.104 A 
ATOM      9  C   UNL d   1      -1.421  -1.623   2.715  0.00  0.00     0.021 A 
ATOM     10  C   UNL d   1      -2.328  -2.676   2.632  0.00  0.00     0.002 A 
ATOM     11  C   UNL d   1      -3.060  -2.873   1.464  0.00  0.00     0.005 A 
ATOM     12  C   UNL d   1      -2.898  -2.023   0.361  0.00  0.00     0.061 A 
ATOM     13  C   UNL d   1      -1.940  -0.977   0.426  0.00  0.00     0.115 A 
BRANCH  12  14
ATOM     14  C   UNL d   1      -3.819  -2.207  -0.779  0.00  0.00     0.185 A 
ATOM     15  N   UNL d   1      -4.266  -1.200  -1.563  0.00  0.00    -0.203 NA
ATOM     16  C   UNL d   1      -5.123  -1.820  -2.400  0.00  0.00     0.197 A 
ATOM     17  N   UNL d   1      -5.183  -3.128  -2.108  0.00  0.00    -0.228 N 
ATOM     18  C   UNL d   1      -6.002  -4.118  -2.783  0.00  0.00     0.156 C 
ATOM     19  N   UNL d   1      -4.385  -3.389  -1.092  0.00  0.00    -0.148 NA
ENDBRANCH  12  14
BRANCH  13  20
ATOM     20  O   UNL d   1      -1.703  -0.117  -0.653  0.00  0.00    -0.327 OA
ATOM     21  C   UNL d   1      -1.454  -0.596  -1.968  0.00  0.00     0.181 C 
ENDBRANCH  13  20
ENDBRANCH   7   8
ENDBRANCH   6   7
BRANCH   1  22
ATOM     22  C   UNL d   1       1.075   2.931   1.798  0.00  0.00     0.294 C 
ATOM     23  N   UNL d   1       1.819   4.153   1.778  0.00  0.00    -0.255 NA
ATOM     24  C   UNL d   1       1.510   5.279   2.647  0.00  0.00     0.181 C 
ATOM     25  O   UNL d   1       0.107   2.803   2.597  0.00  0.00    -0.264 OA
ENDBRANCH   1  22
BRANCH   4  26
ATOM     26  N   UNL d   1       2.727  -1.098  -1.844  0.00  0.00    -0.191 NA
ATOM     27  C   UNL d   1       3.785  -0.947  -2.799  0.00  0.00     0.257 C 
ATOM     28  O   UNL d   1       4.401   0.147  -2.915  0.00  0.00    -0.270 OA
BRANCH  27  29
ATOM     29  C   UNL d   1       4.127  -2.085  -3.705  0.00  0.00     0.081 A 
ATOM     30  C   UNL d   1       4.493  -3.309  -2.885  0.00  0.00     0.010 A 
ATOM     31  C   UNL d   1       5.583  -2.475  -3.520  0.00  0.00     0.010 A 
ENDBRANCH  27  29
ENDBRANCH   4  26
TORSDOF 7
