REMARK  2 active torsions:
REMARK  status: ('A' for Active; 'I' for Inactive)
REMARK    1  A    between atoms: C_16  and  O_17 
REMARK    2  A    between atoms: O_17  and  C_18 
ROOT
ATOM      1  C   UNL d   1       0.600  -1.514   0.311  0.00  0.00     0.037 C 
ATOM      2  C   UNL d   1       0.119  -2.936   0.048  0.00  0.00     0.009 C 
ATOM      3  C   UNL d   1      -0.986  -2.902  -0.982  0.00  0.00     0.005 C 
ATOM      4  C   UNL d   1      -2.219  -2.239  -0.388  0.00  0.00    -0.011 C 
ATOM      5  C   UNL d   1      -2.936  -3.183   0.560  0.00  0.00     0.010 C 
ATOM      6  C   UNL d   1      -1.965  -0.891   0.304  0.00  0.00     0.033 C 
ATOM      7  C   UNL d   1      -2.930   0.142  -0.323  0.00  0.00     0.014 C 
ATOM      8  C   UNL d   1      -2.894   1.555   0.289  0.00  0.00     0.071 C 
ATOM      9  C   UNL d   1      -1.541   1.963   0.893  0.00  0.00     0.196 C 
ATOM     10  C   UNL d   1      -1.704   3.347   1.485  0.00  0.00     0.082 C 
ATOM     11  O   UNL d   1      -1.263   1.058   1.956  0.00  0.00    -0.200 OA
ATOM     12  O   UNL d   1      -0.246   0.246   1.655  0.00  0.00    -0.221 OA
ATOM     13  C   UNL d   1      -0.470  -0.387   0.407  0.00  0.00     0.154 C 
ATOM     14  C   UNL d   1      -0.249   0.743  -0.640  0.00  0.00     0.305 C 
ATOM     15  O   UNL d   1       0.974   0.744  -1.353  0.00  0.00    -0.328 OA
ATOM     16  C   UNL d   1       2.012   0.378  -0.482  0.00  0.00     0.267 C 
ATOM     17  C   UNL d   1       1.970  -1.133  -0.281  0.00  0.00     0.044 C 
ATOM     18  C   UNL d   1       2.258  -1.855  -1.597  0.00  0.00     0.015 C 
ATOM     19  O   UNL d   1      -0.502   2.022  -0.085  0.00  0.00    -0.320 OA
ENDROOT
BRANCH  16  20
ATOM     20  O   UNL d   1       3.242   0.778  -1.011  0.00  0.00    -0.361 OA
BRANCH  20  21
ATOM     21  C   UNL d   1       3.694   1.773  -0.143  0.00  0.00     0.166 C 
ATOM     22  C   UNL d   1       5.034   2.291  -0.623  0.00  0.00     0.033 C 
ENDBRANCH  20  21
ENDBRANCH  16  20
TORSDOF 2
