REMARK  3 active torsions:
REMARK  status: ('A' for Active; 'I' for Inactive)
REMARK    1  A    between atoms: N_4  and  C_8 
REMARK    2  A    between atoms: N_15  and  C_22 
REMARK    3  A    between atoms: C_17  and  C_20 
ROOT
ATOM      1  C   UNL d   1      -1.296  -0.249  -0.393  0.00  0.00     0.113 A 
ATOM      2  C   UNL d   1      -0.789  -0.349  -1.691  0.00  0.00     0.171 A 
ATOM      3  C   UNL d   1       0.583  -0.274  -1.929  0.00  0.00     0.103 A 
ATOM      4  C   UNL d   1       1.493  -0.113  -0.851  0.00  0.00     0.072 A 
ATOM      5  C   UNL d   1       0.993  -0.059   0.486  0.00  0.00     0.092 A 
ATOM      6  C   UNL d   1      -0.414  -0.102   0.689  0.00  0.00     0.173 A 
ATOM      7  F   UNL d   1      -0.954  -0.002   1.930  0.00  0.00    -0.201 F 
ATOM      8  N   UNL d   1       1.882   0.043   1.542  0.00  0.00    -0.347 N 
ATOM      9  C   UNL d   1       3.215   0.202   1.308  0.00  0.00     0.114 A 
ATOM     10  C   UNL d   1       3.754   0.191   0.028  0.00  0.00     0.107 A 
ATOM     11  C   UNL d   1       2.890   0.011  -1.063  0.00  0.00     0.204 A 
ATOM     12  O   UNL d   1       3.369  -0.030  -2.229  0.00  0.00    -0.286 OA
ATOM     13  N   UNL d   1       1.029  -0.357  -3.283  0.00  0.00    -0.098 NA
ATOM     14  F   UNL d   1      -1.640  -0.476  -2.742  0.00  0.00    -0.202 F 
ENDROOT
BRANCH   1  15
ATOM     15  N   UNL d   1      -2.717  -0.297  -0.176  0.00  0.00    -0.372 N 
ATOM     16  C   UNL d   1      -3.494  -1.411  -0.721  0.00  0.00     0.155 C 
ATOM     17  C   UNL d   1      -4.845  -0.935  -1.283  0.00  0.00     0.200 C 
ATOM     18  C   UNL d   1      -5.893  -2.014  -1.092  0.00  0.00     0.041 C 
ATOM     19  N   UNL d   1      -5.320   0.341  -0.725  0.00  0.00    -0.064 N 
ATOM     20  C   UNL d   1      -4.878   0.513   0.657  0.00  0.00     0.200 C 
ATOM     21  HN2 UNL d   1      -5.044   1.130  -1.308  1.00  0.00     0.278 HD
ATOM     22  HN1 UNL d   1      -6.333   0.432  -0.808  1.00  0.00     0.278 HD
ATOM     23  C   UNL d   1      -3.367   0.701   0.676  0.00  0.00     0.155 C 
ATOM     24  C   UNL d   1      -5.546   1.731   1.258  0.00  0.00     0.041 C 
ENDBRANCH   1  15
BRANCH   8  25
ATOM     25  C   UNL d   1       1.448   0.061   2.949  0.00  0.00     0.090 A 
ATOM     26  C   UNL d   1       2.396  -0.715   3.862  0.00  0.00     0.028 A 
ATOM     27  C   UNL d   1       1.113  -1.355   3.400  0.00  0.00     0.028 A 
ENDBRANCH   8  25
BRANCH  10  28
ATOM     28  C   UNL d   1       5.220   0.359  -0.124  0.00  0.00     0.214 C 
ATOM     29  O   UNL d   1       5.949   0.499   0.895  0.00  0.00    -0.644 OA
ATOM     30  O   UNL d   1       5.819   0.367  -1.379  0.00  0.00    -0.644 OA
ENDBRANCH  10  28
TORSDOF 3
