REMARK  Name = fda_7344
REMARK  2 active torsions:
REMARK  status: ('A' for Active; 'I' for Inactive)
REMARK    1  A    between atoms: C_2  and  C_3
REMARK    2  A    between atoms: C_3  and  C_4
REMARK                            x       y       z     vdW  Elec       q    Type
REMARK                         _______ _______ _______ _____ _____    ______ ____
ROOT
ATOM      1  C   UNL A   1       0.604   0.063  -0.595  0.00  0.00    +0.066 A 
ATOM      2  C   UNL A   1       0.078  -1.200  -0.319  0.00  0.00    +0.077 A 
ATOM      3  C   UNL A   1      -1.224  -1.281   0.175  0.00  0.00    +0.282 A 
ATOM      4  O   UNL A   1      -1.781  -2.520   0.460  0.00  0.00    -0.265 OA
ATOM      5  N   UNL A   1      -1.946  -0.148   0.378  0.00  0.00    -0.182 NA
ATOM      6  C   UNL A   1      -1.415   1.073   0.105  0.00  0.00    +0.203 A 
ATOM      7  S   UNL A   1      -2.383   2.548   0.383  0.00  0.00    -0.009 S 
ATOM      8  N   UNL A   1      -0.149   1.173  -0.376  0.00  0.00    -0.225 NA
ENDROOT
BRANCH   1   9
ATOM      9  C   UNL A   1       1.997   0.193  -1.112  0.00  0.00    +0.046 C 
BRANCH   9  11
ATOM     10  C   UNL A   1       3.270  -0.532   0.911  0.00  0.00    +0.000 C 
ATOM     11  C   UNL A   1       2.950   0.630  -0.010  0.00  0.00    +0.006 C 
ENDBRANCH   9  11
ENDBRANCH   1   9
TORSDOF 2
