REMARK  8 active torsions:
REMARK  status: ('A' for Active; 'I' for Inactive)
REMARK    1  A    between atoms: C_2  and  O_17 
REMARK    2  A    between atoms: C_3  and  O_15 
REMARK    3  A    between atoms: C_4  and  O_13 
REMARK    4  A    between atoms: C_5  and  C_10 
REMARK    5  A    between atoms: C_6  and  C_7 
REMARK    6  A    between atoms: C_6  and  N_19 
REMARK    7  A    between atoms: C_7  and  O_8 
REMARK    8  A    between atoms: C_10  and  O_11 
ROOT
ATOM      1  C   UNL d   1       0.149  -0.569  -1.445  0.00  0.00     0.307 C 
ATOM      2  C   UNL d   1      -1.378  -0.477  -1.521  0.00  0.00     0.177 C 
ATOM      3  C   UNL d   1      -2.043  -0.632  -0.149  0.00  0.00     0.179 C 
ATOM      4  C   UNL d   1      -1.060  -1.174   0.888  0.00  0.00     0.184 C 
ATOM      5  C   UNL d   1       0.191  -0.268   0.984  0.00  0.00     0.277 C 
ATOM      6  N   UNL d   1       0.662   0.227  -0.326  0.00  0.00     0.102 N 
ENDROOT
BRANCH   6   7
ATOM      7  C   UNL d   1       2.109   0.080  -0.342  0.00  0.00     0.299 C 
BRANCH   7   8
ATOM      8  C   UNL d   1       2.740   1.287  -1.008  0.00  0.00     0.194 C 
BRANCH   8   9
ATOM      9  O   UNL d   1       4.126   1.140  -1.017  0.00  0.00    -0.399 OA
ATOM     10  HO  UNL d   1       4.522   1.897  -1.434  1.00  0.00     0.209 HD
ENDBRANCH   8   9
ENDBRANCH   7   8
ENDBRANCH   6   7
BRANCH   5  11
ATOM     11  C   UNL d   1      -0.066   0.922   1.907  0.00  0.00     0.202 C 
BRANCH  11  12
ATOM     12  O   UNL d   1       1.139   1.539   2.244  0.00  0.00    -0.399 OA
ATOM     13  HO  UNL d   1       0.979   2.279   2.817  1.00  0.00     0.209 HD
ENDBRANCH  11  12
ENDBRANCH   5  11
BRANCH   2  14
ATOM     14  O   UNL d   1      -1.751   0.743  -2.084  0.00  0.00    -0.391 OA
ATOM     15  HO  UNL d   1      -2.698   0.800  -2.131  1.00  0.00     0.210 HD
ENDBRANCH   2  14
BRANCH   4  16
ATOM     16  O   UNL d   1      -1.679  -1.331   2.131  0.00  0.00    -0.391 OA
ATOM     17  HO  UNL d   1      -1.068  -1.667   2.776  1.00  0.00     0.210 HD
ENDBRANCH   4  16
BRANCH   3  18
ATOM     18  O   UNL d   1      -3.140  -1.487  -0.262  0.00  0.00    -0.390 OA
ATOM     19  HO  UNL d   1      -3.552  -1.583   0.588  1.00  0.00     0.210 HD
ENDBRANCH   3  18
TORSDOF 8
