REMARK  13 active torsions:
REMARK  status: ('A' for Active; 'I' for Inactive)
REMARK    1  A    between atoms: C_3  and  C_2 
REMARK    2  A    between atoms: C_4  and  O_56 
REMARK    3  A    between atoms: C_5  and  O_53 
REMARK    4  A    between atoms: C_11  and  O_49 
REMARK    5  A    between atoms: C_12  and  O_34 
REMARK    6  A    between atoms: C_14  and  O_20 
REMARK    7  A    between atoms: C_21  and  O_20 
REMARK    8  A    between atoms: C_23  and  O_31 
REMARK    9  A    between atoms: C_24  and  O_28 
REMARK   10  A    between atoms: C_35  and  O_34 
REMARK   11  A    between atoms: C_36  and  O_44 
REMARK   12  A    between atoms: C_37  and  N_58 
REMARK   13  A    between atoms: O_44  and  C_45 
ROOT
ATOM      1  C   UNL d   1      -3.902   2.868   0.667  0.00  0.00     0.168 C 
ATOM      2  C   UNL d   1      -3.037   3.989   1.307  0.00  0.00     0.107 C 
ATOM      3  C   UNL d   1      -2.278   4.869   0.279  0.00  0.00     0.165 C 
ATOM      4  C   UNL d   1      -0.908   5.383   0.759  0.00  0.00     0.083 C 
ATOM      5  C   UNL d   1       0.283   4.645   0.200  0.00  0.00     0.137 C 
ATOM      6  O   UNL d   1       0.654   4.854  -0.947  0.00  0.00    -0.297 OA
ATOM      7  C   UNL d   1       1.045   3.689   1.079  0.00  0.00     0.054 C 
ATOM      8  C   UNL d   1       1.427   2.378   0.371  0.00  0.00     0.051 C 
ATOM      9  C   UNL d   1       0.231   1.494  -0.024  0.00  0.00     0.081 C 
ATOM     10  C   UNL d   1       0.657   0.121  -0.580  0.00  0.00     0.165 C 
ATOM     11  C   UNL d   1      -0.209  -0.445  -1.726  0.00  0.00     0.047 C 
ATOM     12  C   UNL d   1      -1.714  -0.723  -1.476  0.00  0.00     0.165 C 
ATOM     13  C   UNL d   1      -2.784   0.292  -1.965  0.00  0.00     0.021 C 
ATOM     14  C   UNL d   1      -3.632   0.981  -0.938  0.00  0.00     0.288 C 
ATOM     15  O   UNL d   1      -4.851   0.673  -0.858  0.00  0.00    -0.260 OA
ATOM     16  O   UNL d   1      -3.099   1.991  -0.127  0.00  0.00    -0.309 OA
ATOM     17  C   UNL d   1      -2.431   1.203  -3.127  0.00  0.00     0.053 C 
ATOM     18  C   UNL d   1       0.203  -0.031  -3.130  0.00  0.00     0.015 C 
ATOM     19  C   UNL d   1      -0.608   1.212   1.208  0.00  0.00     0.049 C 
ATOM     20  C   UNL d   1       2.302   4.357   1.596  0.00  0.00     0.018 C 
ATOM     21  C   UNL d   1      -0.789   6.877   0.521  0.00  0.00     0.020 C 
ATOM     22  C   UNL d   1      -3.937   4.941   2.079  0.00  0.00     0.051 C 
ENDROOT
BRANCH  10  23
ATOM     23  O   UNL d   1       2.021   0.061  -0.902  0.00  0.00    -0.350 OA
BRANCH  23  24
ATOM     24  C   UNL d   1       2.466  -1.165  -0.396  0.00  0.00     0.292 C 
ATOM     25  O   UNL d   1       3.361  -1.755  -1.308  0.00  0.00    -0.354 OA
ATOM     26  C   UNL d   1       3.527  -3.092  -0.905  0.00  0.00     0.122 C 
ATOM     27  C   UNL d   1       4.347  -3.148   0.381  0.00  0.00     0.070 C 
ATOM     28  C   UNL d   1       4.250  -3.859  -1.992  0.00  0.00     0.040 C 
ATOM     29  C   UNL d   1       3.610  -2.348   1.471  0.00  0.00     0.258 C 
ATOM     30  C   UNL d   1       3.143  -0.973   0.968  0.00  0.00     0.220 C 
BRANCH  29  31
ATOM     31  N   UNL d   1       4.306  -2.270   2.764  0.00  0.00     0.087 N 
ATOM     32  C   UNL d   1       4.179  -3.560   3.420  0.00  0.00     0.310 C 
ATOM     33  C   UNL d   1       5.732  -2.007   2.596  0.00  0.00     0.310 C 
ENDBRANCH  29  31
BRANCH  30  34
ATOM     34  O   UNL d   1       4.235  -0.067   0.846  0.00  0.00    -0.309 OA
BRANCH  34  35
ATOM     35  C   UNL d   1       4.423   0.983   1.746  0.00  0.00     0.255 C 
ATOM     36  O   UNL d   1       3.631   1.158   2.710  0.00  0.00    -0.266 OA
ATOM     37  C   UNL d   1       5.568   1.911   1.560  0.00  0.00     0.126 C 
ENDBRANCH  34  35
ENDBRANCH  30  34
ENDBRANCH  23  24
ENDBRANCH  10  23
BRANCH   9  38
ATOM     38  O   UNL d   1      -0.525   2.175  -0.976  0.00  0.00    -0.388 OA
ATOM     39  HO  UNL d   1      -1.264   1.630  -1.220  1.00  0.00     0.210 HD
ENDBRANCH   9  38
BRANCH  12  40
ATOM     40  O   UNL d   1      -1.963  -1.151  -0.156  0.00  0.00    -0.351 OA
BRANCH  40  41
ATOM     41  C   UNL d   1      -1.960  -2.563  -0.106  0.00  0.00     0.264 C 
ATOM     42  O   UNL d   1      -2.773  -3.152  -1.097  0.00  0.00    -0.354 OA
ATOM     43  C   UNL d   1      -2.883  -4.497  -0.725  0.00  0.00     0.152 C 
ATOM     44  C   UNL d   1      -1.574  -5.259  -1.030  0.00  0.00     0.181 C 
ATOM     45  C   UNL d   1      -4.118  -5.126  -1.350  0.00  0.00     0.042 C 
ATOM     46  C   UNL d   1      -0.310  -4.339  -0.999  0.00  0.00     0.089 C 
ATOM     47  C   UNL d   1      -0.531  -3.147  -0.052  0.00  0.00     0.101 C 
ATOM     48  C   UNL d   1      -0.017  -3.737  -2.381  0.00  0.00     0.049 C 
BRANCH  44  49
ATOM     49  O   UNL d   1      -1.658  -5.968  -2.236  0.00  0.00    -0.390 OA
ATOM     50  HO  UNL d   1      -2.426  -6.527  -2.255  1.00  0.00     0.210 HD
ENDBRANCH  44  49
BRANCH  46  51
ATOM     51  O   UNL d   1       0.818  -5.039  -0.501  0.00  0.00    -0.383 OA
ATOM     52  C   UNL d   1       1.157  -6.103  -1.356  0.00  0.00     0.202 C 
ENDBRANCH  46  51
ENDBRANCH  40  41
ENDBRANCH  12  40
BRANCH   3  53
ATOM     53  O   UNL d   1      -2.247   4.360  -1.023  0.00  0.00    -0.392 OA
ATOM     54  HO  UNL d   1      -1.782   4.899  -1.652  1.00  0.00     0.210 HD
ENDBRANCH   3  53
BRANCH   1  55
ATOM     55  C   UNL d   1      -4.645   2.057   1.733  0.00  0.00     0.031 C 
ATOM     56  C   UNL d   1      -6.053   2.588   1.911  0.00  0.00     0.007 C 
ENDBRANCH   1  55
BRANCH   2  57
ATOM     57  O   UNL d   1      -2.141   3.416   2.214  0.00  0.00    -0.385 OA
ATOM     58  HO  UNL d   1      -1.612   4.101   2.605  1.00  0.00     0.210 HD
ENDBRANCH   2  57
TORSDOF 13
