REMARK  2 active torsions:
REMARK  status: ('A' for Active; 'I' for Inactive)
REMARK    1  A    between atoms: C_4  and  C_2 
REMARK    2  A    between atoms: C_25  and  C_28 
ROOT
ATOM      1  C   UNL d   1      -1.559   1.207   1.321  0.00  0.00     0.158 C 
ATOM      2  C   UNL d   1      -1.149   1.866   0.089  0.00  0.00     0.169 C 
ATOM      3  C   UNL d   1       0.281   2.280   0.223  0.00  0.00     0.041 C 
ATOM      4  C   UNL d   1       0.837   1.030   0.943  0.00  0.00     0.004 C 
ATOM      5  C   UNL d   1      -0.398   0.200   1.452  0.00  0.00     0.001 C 
ATOM      6  C   UNL d   1      -0.640  -1.036   0.570  0.00  0.00     0.013 C 
ATOM      7  C   UNL d   1       0.578  -1.959   0.516  0.00  0.00     0.007 C 
ATOM      8  C   UNL d   1       1.927  -1.217   0.408  0.00  0.00     0.002 C 
ATOM      9  C   UNL d   1       1.779   0.265  -0.000  0.00  0.00    -0.004 C 
ATOM     10  C   UNL d   1       3.142   0.952   0.025  0.00  0.00     0.010 C 
ATOM     11  C   UNL d   1       4.097   0.288  -0.953  0.00  0.00     0.035 C 
ATOM     12  C   UNL d   1       4.215  -1.169  -0.643  0.00  0.00    -0.068 C 
ATOM     13  C   UNL d   1       5.427  -1.730  -0.701  0.00  0.00     0.053 C 
ATOM     14  C   UNL d   1       5.612  -3.175  -0.520  0.00  0.00     0.149 C 
ATOM     15  O   UNL d   1       6.771  -3.664  -0.526  0.00  0.00    -0.293 OA
ATOM     16  C   UNL d   1       4.425  -4.075  -0.396  0.00  0.00     0.084 C 
ATOM     17  C   UNL d   1       3.263  -3.325   0.253  0.00  0.00     0.022 C 
ATOM     18  C   UNL d   1       2.948  -1.996  -0.460  0.00  0.00    -0.016 C 
ATOM     19  C   UNL d   1       2.358  -2.288  -1.839  0.00  0.00     0.020 C 
ATOM     20  C   UNL d   1      -0.174  -0.253   2.894  0.00  0.00     0.019 C 
ATOM     21  O   UNL d   1      -2.207   2.652  -0.300  0.00  0.00    -0.342 OA
ATOM     22  C   UNL d   1      -3.272   1.751   0.004  0.00  0.00     0.191 C 
ATOM     23  O   UNL d   1      -2.825   0.752   0.940  0.00  0.00    -0.329 OA
ATOM     24  C   UNL d   1      -4.421   2.536   0.619  0.00  0.00     0.085 C 
ENDROOT
BRANCH  22  25
ATOM     25  C   UNL d   1      -3.772   1.088  -1.260  0.00  0.00     0.003 A 
ATOM     26  C   UNL d   1      -4.310  -0.208  -1.220  0.00  0.00     0.012 A 
ATOM     27  C   UNL d   1      -4.805  -0.806  -2.382  0.00  0.00     0.001 A 
ATOM     28  C   UNL d   1      -4.776  -0.110  -3.593  0.00  0.00     0.000 A 
ATOM     29  C   UNL d   1      -4.257   1.186  -3.641  0.00  0.00     0.001 A 
ATOM     30  C   UNL d   1      -3.763   1.785  -2.479  0.00  0.00     0.012 A 
ENDBRANCH  22  25
BRANCH   1  31
ATOM     31  C   UNL d   1      -1.681   2.153   2.527  0.00  0.00     0.161 C 
ATOM     32  C   UNL d   1      -2.822   2.018   3.481  0.00  0.00     0.094 C 
ATOM     33  O   UNL d   1      -0.830   3.000   2.753  0.00  0.00    -0.295 OA
ENDBRANCH   1  31
TORSDOF 2
