REMARK  13 active torsions:
REMARK  status: ('A' for Active; 'I' for Inactive)
REMARK    1  A    between atoms: C_2  and  C_3 
REMARK    2  A    between atoms: C_4  and  C_5 
REMARK    3  A    between atoms: C_5  and  C_6 
REMARK    4  A    between atoms: C_7  and  C_8 
REMARK    5  A    between atoms: C_8  and  C_9 
REMARK    6  A    between atoms: C_10  and  C_11 
REMARK    7  A    between atoms: C_11  and  C_12 
REMARK    8  A    between atoms: C_13  and  C_14 
REMARK    9  A    between atoms: C_14  and  C_15 
REMARK   10  A    between atoms: C_16  and  C_17 
REMARK   11  A    between atoms: C_17  and  C_18 
REMARK   12  A    between atoms: C_18  and  C_19 
REMARK   13  A    between atoms: C_19  and  C_20 
ROOT
ATOM      1  C   UNL d   1       0.963   2.464  -0.054  0.00  0.00     0.053 C 
ENDROOT
BRANCH   1   2
ATOM      2  C   UNL d   1      -0.345   2.024   0.529  0.00  0.00    -0.027 C 
ATOM      3  C   UNL d   1      -1.069   1.025   0.012  0.00  0.00    -0.027 C 
BRANCH   3   4
ATOM      4  C   UNL d   1      -0.655   0.244  -1.201  0.00  0.00     0.053 C 
BRANCH   4   5
ATOM      5  C   UNL d   1      -0.856   1.040  -2.458  0.00  0.00    -0.027 C 
ATOM      6  C   UNL d   1      -2.058   1.284  -2.997  0.00  0.00    -0.027 C 
BRANCH   6   7
ATOM      7  C   UNL d   1      -3.344   0.781  -2.416  0.00  0.00     0.053 C 
BRANCH   7   8
ATOM      8  C   UNL d   1      -3.506  -0.682  -2.694  0.00  0.00    -0.027 C 
ATOM      9  C   UNL d   1      -4.551  -1.393  -2.254  0.00  0.00    -0.031 C 
BRANCH   9  10
ATOM     10  C   UNL d   1      -5.668  -0.806  -1.447  0.00  0.00     0.022 C 
ATOM     11  C   UNL d   1      -6.603  -0.011  -2.339  0.00  0.00     0.009 C 
ENDBRANCH   9  10
ENDBRANCH   7   8
ENDBRANCH   6   7
ENDBRANCH   4   5
ENDBRANCH   3   4
ENDBRANCH   1   2
BRANCH   1  12
ATOM     12  C   UNL d   1       1.596   3.513   0.809  0.00  0.00    -0.027 C 
ATOM     13  C   UNL d   1       2.174   3.250   1.990  0.00  0.00    -0.027 C 
BRANCH  13  14
ATOM     14  C   UNL d   1       2.256   1.874   2.579  0.00  0.00     0.053 C 
BRANCH  14  15
ATOM     15  C   UNL d   1       3.271   1.051   1.847  0.00  0.00    -0.027 C 
ATOM     16  C   UNL d   1       3.416  -0.262   2.049  0.00  0.00    -0.030 C 
BRANCH  16  17
ATOM     17  C   UNL d   1       2.578  -1.027   3.025  0.00  0.00     0.027 C 
BRANCH  17  18
ATOM     18  C   UNL d   1       2.859  -2.517   2.907  0.00  0.00     0.014 C 
BRANCH  18  19
ATOM     19  C   UNL d   1       1.942  -3.172   1.883  0.00  0.00     0.113 C 
BRANCH  19  20
ATOM     20  C   UNL d   1       2.415  -2.924   0.491  0.00  0.00     0.172 C 
ATOM     21  O   UNL d   1       1.808  -1.944  -0.283  0.00  0.00    -0.648 OA
ATOM     22  O   UNL d   1       3.377  -3.587   0.023  0.00  0.00    -0.648 OA
ENDBRANCH  19  20
ENDBRANCH  18  19
ENDBRANCH  17  18
ENDBRANCH  16  17
ENDBRANCH  14  15
ENDBRANCH  13  14
ENDBRANCH   1  12
TORSDOF 13
