REMARK  4 active torsions:
REMARK  status: ('A' for Active; 'I' for Inactive)
REMARK    1  A    between atoms: C_5  and  C_6 
REMARK    2  A    between atoms: C_6  and  N_7 
REMARK    3  A    between atoms: C_8  and  C_9 
REMARK    4  A    between atoms: C_9  and  N_10 
ROOT
ATOM      1  N   UNL d   1      -0.372   0.574   0.520  0.00  0.00    -0.329 N 
ATOM      2  C   UNL d   1      -0.989   0.521  -0.687  0.00  0.00     0.113 A 
ATOM      3  N   UNL d   1      -1.243   1.746  -1.219  0.00  0.00    -0.342 N 
ATOM      4  HN  UNL d   1      -1.701   1.974  -2.101  1.00  0.00     0.167 HD
ATOM      5  C   UNL d   1      -0.740   2.584  -0.292  0.00  0.00     0.060 A 
ATOM      6  C   UNL d   1      -0.721   3.976  -0.329  0.00  0.00     0.032 A 
ATOM      7  C   UNL d   1      -0.131   4.645   0.760  0.00  0.00     0.002 A 
ATOM      8  C   UNL d   1       0.416   3.917   1.842  0.00  0.00     0.002 A 
ATOM      9  C   UNL d   1       0.380   2.511   1.849  0.00  0.00     0.032 A 
ATOM     10  C   UNL d   1      -0.212   1.883   0.754  0.00  0.00     0.063 A 
ENDROOT
BRANCH   1  11
ATOM     11  C   UNL d   1       0.071  -0.540   1.352  0.00  0.00     0.169 C 
BRANCH  11  12
ATOM     12  C   UNL d   1       1.434  -0.982   0.939  0.00  0.00    -0.040 A 
ATOM     13  C   UNL d   1       2.566  -0.346   1.460  0.00  0.00     0.010 A 
ATOM     14  C   UNL d   1       3.842  -0.744   1.052  0.00  0.00     0.024 A 
ATOM     15  C   UNL d   1       3.988  -1.777   0.120  0.00  0.00     0.034 A 
ATOM     16 CL   UNL d   1       5.586  -2.276  -0.390  0.00  0.00    -0.084 Cl
ATOM     17  C   UNL d   1       2.857  -2.409  -0.406  0.00  0.00     0.024 A 
ATOM     18  C   UNL d   1       1.580  -2.010   0.001  0.00  0.00     0.010 A 
ENDBRANCH  11  12
ENDBRANCH   1  11
BRANCH   2  19
ATOM     19  C   UNL d   1      -1.391  -0.749  -1.361  0.00  0.00     0.348 C 
BRANCH  19  20
ATOM     20  N   UNL d   1      -2.593  -1.280  -0.740  0.00  0.00     0.095 N 
ATOM     21  C   UNL d   1      -3.708  -0.970  -1.624  0.00  0.00     0.273 C 
ATOM     22  C   UNL d   1      -4.566  -2.205  -1.726  0.00  0.00     0.032 C 
ATOM     23  C   UNL d   1      -3.596  -3.334  -1.529  0.00  0.00     0.032 C 
ATOM     24  C   UNL d   1      -2.459  -2.734  -0.727  0.00  0.00     0.273 C 
ENDBRANCH  19  20
ENDBRANCH   2  19
TORSDOF 4
