REMARK  5 active torsions:
REMARK  status: ('A' for Active; 'I' for Inactive)
REMARK    1  A    between atoms: C_7  and  N_8 
REMARK       I    between atoms: N_8  and  C_10 
REMARK    2  A    between atoms: C_10  and  C_12 
REMARK    3  A    between atoms: C_14  and  S_21 
REMARK    4  A    between atoms: C_17  and  O_18 
REMARK    5  A    between atoms: S_21  and  N_24 
ROOT
ATOM      1  C   UNL d   1       0.721  -0.269   0.204  0.00  0.00     0.067 A 
ATOM      2  C   UNL d   1       1.860   0.520  -0.016  0.00  0.00     0.047 A 
ATOM      3  C   UNL d   1       3.148  -0.016   0.080  0.00  0.00     0.102 A 
ATOM      4  C   UNL d   1       3.307  -1.375   0.405  0.00  0.00     0.060 A 
ATOM      5  C   UNL d   1       2.181  -2.169   0.625  0.00  0.00     0.063 A 
ATOM      6  C   UNL d   1       0.895  -1.633   0.528  0.00  0.00     0.083 A 
ATOM      7 CL   UNL d   1       4.890  -2.126   0.547  0.00  0.00    -0.083 Cl
ENDROOT
BRANCH   1   8
ATOM      8  C   UNL d   1      -0.614   0.366   0.084  0.00  0.00     0.259 C 
ATOM      9  N   UNL d   1      -1.809  -0.382   0.338  0.00  0.00    -0.322 N 
ATOM     10  HN  UNL d   1      -1.707  -1.306   0.758  1.00  0.00     0.169 HD
ATOM     11  O   UNL d   1      -0.695   1.590  -0.210  0.00  0.00    -0.267 OA
BRANCH   9  12
ATOM     12  C   UNL d   1      -3.141   0.070   0.045  0.00  0.00     0.046 A 
ATOM     13  C   UNL d   1      -4.140  -0.062   1.028  0.00  0.00    -0.035 A 
ATOM     14  C   UNL d   1      -3.830  -0.632   2.370  0.00  0.00     0.050 C 
ATOM     15  C   UNL d   1      -5.445   0.365   0.766  0.00  0.00     0.009 A 
ATOM     16  C   UNL d   1      -5.773   0.902  -0.479  0.00  0.00     0.001 A 
ATOM     17  C   UNL d   1      -4.798   1.005  -1.472  0.00  0.00     0.009 A 
ATOM     18  C   UNL d   1      -3.487   0.588  -1.224  0.00  0.00    -0.035 A 
ATOM     19  C   UNL d   1      -2.512   0.641  -2.351  0.00  0.00     0.050 C 
ENDBRANCH   9  12
ENDBRANCH   1   8
BRANCH   6  20
ATOM     20  O   UNL d   1      -0.191  -2.470   0.755  0.00  0.00    -0.360 OA
ATOM     21  HO  UNL d   1      -0.074  -3.388   0.973  1.00  0.00     0.217 HD
ENDBRANCH   6  20
BRANCH   3  22
ATOM     22  S   UNL d   1       4.530   1.039  -0.209  0.00  0.00     0.258 S 
ATOM     23  O   UNL d   1       5.347   0.501  -1.350  0.00  0.00    -0.201 OA
ATOM     24  O   UNL d   1       4.053   2.420  -0.559  0.00  0.00    -0.201 OA
BRANCH  22  25
ATOM     25  N   UNL d   1       5.503   1.127   1.216  0.00  0.00    -0.324 N 
ATOM     26  HN2 UNL d   1       5.295   0.637   2.086  1.00  0.00     0.169 HD
ATOM     27  HN1 UNL d   1       6.303   1.737   1.049  1.00  0.00     0.169 HD
ENDBRANCH  22  25
ENDBRANCH   3  22
TORSDOF 5
