REMARK  6 active torsions:
REMARK  status: ('A' for Active; 'I' for Inactive)
REMARK    1  A    between atoms: O_1  and  C_3 
REMARK    2  A    between atoms: C_3  and  C_4 
REMARK    3  A    between atoms: C_4  and  N_5 
REMARK    4  A    between atoms: N_8  and  C_9 
REMARK    5  A    between atoms: C_9  and  C_10 
REMARK    6  A    between atoms: C_10  and  C_11 
ROOT
ATOM      1  C   UNL d   1      -1.265  -1.059  -0.898  0.00  0.00    -0.012 C 
ATOM      2  C   UNL d   1      -1.888  -0.147  -0.134  0.00  0.00    -0.017 C 
ATOM      3  C   UNL d   1      -2.518   1.025  -0.787  0.00  0.00    -0.008 A 
ATOM      4  C   UNL d   1      -1.915   1.633  -1.900  0.00  0.00     0.013 A 
ATOM      5  C   UNL d   1      -2.421   2.831  -2.410  0.00  0.00     0.001 A 
ATOM      6  C   UNL d   1      -3.524   3.439  -1.806  0.00  0.00     0.001 A 
ATOM      7  C   UNL d   1      -4.137   2.838  -0.703  0.00  0.00     0.020 A 
ATOM      8  C   UNL d   1      -3.644   1.632  -0.198  0.00  0.00     0.016 A 
ATOM      9  S   UNL d   1      -4.546   0.786   1.104  0.00  0.00    -0.089 SA
ATOM     10  C   UNL d   1      -3.066   0.346   2.020  0.00  0.00     0.017 A 
ATOM     11  C   UNL d   1      -3.059   0.483   3.411  0.00  0.00     0.021 A 
ATOM     12  C   UNL d   1      -1.955   0.056   4.152  0.00  0.00     0.025 A 
ATOM     13  C   UNL d   1      -0.857  -0.511   3.503  0.00  0.00     0.035 A 
ATOM     14 CL   UNL d   1       0.529  -1.044   4.429  0.00  0.00    -0.084 Cl
ATOM     15  C   UNL d   1      -0.851  -0.627   2.111  0.00  0.00     0.037 A 
ATOM     16  C   UNL d   1      -1.956  -0.213   1.353  0.00  0.00    -0.007 A 
ENDROOT
BRANCH   1  17
ATOM     17  C   UNL d   1      -0.568  -2.285  -0.396  0.00  0.00     0.058 C 
BRANCH  17  18
ATOM     18  C   UNL d   1       0.901  -2.000  -0.112  0.00  0.00     0.276 C 
BRANCH  18  19
ATOM     19  N   UNL d   1       1.623  -1.763  -1.353  0.00  0.00     0.092 N 
ATOM     20  C   UNL d   1       2.780  -2.667  -1.354  0.00  0.00     0.302 C 
ATOM     21  C   UNL d   1       3.966  -2.059  -2.103  0.00  0.00     0.302 C 
ATOM     22  N   UNL d   1       4.452  -0.842  -1.438  0.00  0.00     0.093 N 
ATOM     23  C   UNL d   1       3.382  -0.076  -0.774  0.00  0.00     0.302 C 
ATOM     24  C   UNL d   1       1.996  -0.338  -1.383  0.00  0.00     0.302 C 
BRANCH  22  25
ATOM     25  C   UNL d   1       5.025   0.004  -2.474  0.00  0.00     0.298 C 
BRANCH  25  26
ATOM     26  C   UNL d   1       6.246   0.735  -1.940  0.00  0.00     0.194 C 
BRANCH  26  27
ATOM     27  O   UNL d   1       7.271  -0.177  -1.688  0.00  0.00    -0.399 OA
ATOM     28  HO  UNL d   1       8.035   0.279  -1.354  1.00  0.00     0.209 HD
ENDBRANCH  26  27
ENDBRANCH  25  26
ENDBRANCH  22  25
ENDBRANCH  18  19
ENDBRANCH  17  18
ENDBRANCH   1  17
TORSDOF 6
