REMARK  16 active torsions:
REMARK  status: ('A' for Active; 'I' for Inactive)
REMARK    1  A    between atoms: C_5  and  C_67 
REMARK    2  A    between atoms: C_7  and  N_8 
REMARK       I    between atoms: N_8  and  C_10 
REMARK    3  A    between atoms: C_10  and  C_12 
REMARK    4  A    between atoms: C_16  and  N_17 
REMARK       I    between atoms: N_17  and  C_19 
REMARK       I    between atoms: C_19  and  N_21 
REMARK    5  A    between atoms: N_21  and  C_23 
REMARK    6  A    between atoms: C_27  and  C_29 
REMARK       I    between atoms: C_29  and  N_31 
REMARK    7  A    between atoms: N_31  and  C_33 
REMARK    8  A    between atoms: C_35  and  C_40 
REMARK       I    between atoms: C_40  and  N_42 
REMARK    9  A    between atoms: N_42  and  C_44 
REMARK   10  A    between atoms: C_47  and  S_62 
REMARK   11  A    between atoms: C_50  and  S_58 
REMARK   12  A    between atoms: C_52  and  S_54 
REMARK       I    between atoms: C_67  and  N_69 
REMARK   13  A    between atoms: N_69  and  C_71 
REMARK   14  A    between atoms: C_74  and  S_89 
REMARK   15  A    between atoms: C_77  and  S_85 
REMARK   16  A    between atoms: C_79  and  S_81 
ROOT
ATOM      1  N   UNL d   1      -0.727  -1.602  -0.203  0.00  0.00    -0.309 N 
ATOM      2  HN  UNL d   1      -0.346  -2.547  -0.154  1.00  0.00     0.170 HD
ATOM      3  C   UNL d   1       0.223  -0.535  -0.276  0.00  0.00     0.325 C 
ATOM      4  O   UNL d   1      -0.142   0.634  -0.572  0.00  0.00    -0.247 OA
ATOM      5  N   UNL d   1       1.580  -0.805   0.088  0.00  0.00    -0.309 N 
ATOM      6  HN  UNL d   1       1.778  -1.737   0.455  1.00  0.00     0.170 HD
ENDROOT
BRANCH   1   7
ATOM      7  C   UNL d   1      -2.157  -1.487  -0.193  0.00  0.00     0.037 A 
ATOM      8  C   UNL d   1      -2.920  -2.653  -0.076  0.00  0.00     0.029 A 
ATOM      9  C   UNL d   1      -4.311  -2.583   0.007  0.00  0.00     0.003 A 
ATOM     10  C   UNL d   1      -4.950  -1.342  -0.027  0.00  0.00     0.017 A 
ATOM     11  C   UNL d   1      -4.202  -0.164  -0.151  0.00  0.00     0.034 A 
ATOM     12  C   UNL d   1      -2.805  -0.243  -0.233  0.00  0.00     0.046 A 
BRANCH  11  13
ATOM     13  C   UNL d   1      -4.880   1.140  -0.197  0.00  0.00     0.256 C 
ATOM     14  N   UNL d   1      -6.248   1.237   0.223  0.00  0.00    -0.322 N 
ATOM     15  HN  UNL d   1      -6.702   0.366   0.498  1.00  0.00     0.169 HD
ATOM     16  O   UNL d   1      -4.275   2.148  -0.654  0.00  0.00    -0.267 OA
BRANCH  14  17
ATOM     17  C   UNL d   1      -7.047   2.425   0.297  0.00  0.00     0.042 A 
ATOM     18  C   UNL d   1      -8.379   2.333  -0.117  0.00  0.00     0.047 A 
ATOM     19  C   UNL d   1      -9.225   3.447  -0.090  0.00  0.00     0.034 A 
ATOM     20  C   UNL d   1      -8.730   4.673   0.369  0.00  0.00     0.018 A 
ATOM     21  C   UNL d   1      -7.415   4.770   0.828  0.00  0.00     0.010 A 
ATOM     22  C   UNL d   1      -6.572   3.654   0.813  0.00  0.00    -0.035 A 
ATOM     23  C   UNL d   1      -5.229   3.789   1.443  0.00  0.00     0.050 C 
BRANCH  19  24
ATOM     24  C   UNL d   1     -10.624   3.311  -0.519  0.00  0.00     0.256 C 
ATOM     25  O   UNL d   1     -11.305   4.336  -0.785  0.00  0.00    -0.267 OA
ATOM     26  N   UNL d   1     -11.223   2.006  -0.571  0.00  0.00    -0.322 N 
ATOM     27  HN  UNL d   1     -10.709   1.249  -0.121  1.00  0.00     0.169 HD
BRANCH  26  28
ATOM     28  C   UNL d   1     -12.466   1.659  -1.191  0.00  0.00     0.047 A 
ATOM     29  C   UNL d   1     -12.951   2.479  -2.212  0.00  0.00     0.032 A 
ATOM     30  C   UNL d   1     -14.083   2.142  -2.938  0.00  0.00     0.029 A 
ATOM     31  C   UNL d   1     -14.758   0.957  -2.680  0.00  0.00     0.091 A 
ATOM     32  C   UNL d   1     -14.296   0.099  -1.658  0.00  0.00     0.004 A 
ATOM     33  C   UNL d   1     -14.972  -1.104  -1.412  0.00  0.00     0.040 A 
ATOM     34  C   UNL d   1     -13.150   0.447  -0.872  0.00  0.00     0.027 A 
ATOM     35  C   UNL d   1     -14.563  -1.967  -0.408  0.00  0.00     0.083 A 
ATOM     36  C   UNL d   1     -13.482  -1.622   0.393  0.00  0.00     0.053 A 
ATOM     37  C   UNL d   1     -12.771  -0.438   0.193  0.00  0.00     0.095 A 
BRANCH  31  38
ATOM     38  S   UNL d   1     -16.179   0.568  -3.661  0.00  0.00     0.138 S 
ATOM     39  O   UNL d   1     -17.542   0.503  -2.681  0.00  0.00    -0.591 OA
ATOM     40  O   UNL d   1     -15.982  -0.760  -4.336  0.00  0.00    -0.591 OA
ATOM     41  O   UNL d   1     -16.381   1.628  -4.707  0.00  0.00    -0.591 OA
ENDBRANCH  31  38
BRANCH  35  42
ATOM     42  S   UNL d   1     -15.433  -3.462  -0.123  0.00  0.00     0.137 S 
ATOM     43  O   UNL d   1     -16.748  -3.165   0.879  0.00  0.00    -0.591 OA
ATOM     44  O   UNL d   1     -15.916  -4.024  -1.430  0.00  0.00    -0.591 OA
ATOM     45  O   UNL d   1     -14.524  -4.462   0.531  0.00  0.00    -0.591 OA
ENDBRANCH  35  42
BRANCH  37  46
ATOM     46  S   UNL d   1     -11.492  -0.148   1.378  0.00  0.00     0.138 S 
ATOM     47  O   UNL d   1     -11.560  -1.340   2.563  0.00  0.00    -0.591 OA
ATOM     48  O   UNL d   1     -10.146  -0.212   0.714  0.00  0.00    -0.591 OA
ATOM     49  O   UNL d   1     -11.682   1.188   2.035  0.00  0.00    -0.591 OA
ENDBRANCH  37  46
ENDBRANCH  26  28
ENDBRANCH  19  24
ENDBRANCH  14  17
ENDBRANCH  11  13
ENDBRANCH   1   7
BRANCH   5  50
ATOM     50  C   UNL d   1       2.688   0.093  -0.008  0.00  0.00     0.037 A 
ATOM     51  C   UNL d   1       2.644   1.236  -0.817  0.00  0.00     0.029 A 
ATOM     52  C   UNL d   1       3.762   2.072  -0.914  0.00  0.00     0.003 A 
ATOM     53  C   UNL d   1       4.927   1.772  -0.201  0.00  0.00     0.017 A 
ATOM     54  C   UNL d   1       4.979   0.632   0.616  0.00  0.00     0.034 A 
ATOM     55  C   UNL d   1       3.856  -0.203   0.699  0.00  0.00     0.046 A 
BRANCH  54  56
ATOM     56  C   UNL d   1       6.185   0.319   1.400  0.00  0.00     0.256 C 
ATOM     57  O   UNL d   1       7.261   0.935   1.177  0.00  0.00    -0.267 OA
ATOM     58  N   UNL d   1       6.108  -0.667   2.440  0.00  0.00    -0.322 N 
ATOM     59  HN  UNL d   1       5.190  -1.080   2.608  1.00  0.00     0.169 HD
BRANCH  58  60
ATOM     60  C   UNL d   1       7.180  -1.134   3.270  0.00  0.00     0.042 A 
ATOM     61  C   UNL d   1       8.523  -0.982   2.887  0.00  0.00     0.047 A 
ATOM     62  C   UNL d   1       9.559  -1.450   3.709  0.00  0.00     0.034 A 
ATOM     63  C   UNL d   1       9.240  -2.070   4.925  0.00  0.00     0.018 A 
ATOM     64  C   UNL d   1       7.908  -2.236   5.307  0.00  0.00     0.010 A 
ATOM     65  C   UNL d   1       6.878  -1.782   4.481  0.00  0.00    -0.035 A 
ATOM     66  C   UNL d   1       5.467  -1.982   4.920  0.00  0.00     0.050 C 
BRANCH  62  67
ATOM     67  C   UNL d   1      10.971  -1.312   3.305  0.00  0.00     0.256 C 
ATOM     68  O   UNL d   1      11.876  -1.449   4.170  0.00  0.00    -0.267 OA
ATOM     69  N   UNL d   1      11.311  -1.012   1.940  0.00  0.00    -0.322 N 
ATOM     70  HN  UNL d   1      10.558  -0.674   1.341  1.00  0.00     0.169 HD
BRANCH  69  71
ATOM     71  C   UNL d   1      12.610  -1.144   1.337  0.00  0.00     0.047 A 
ATOM     72  C   UNL d   1      13.597  -1.850   2.035  0.00  0.00     0.032 A 
ATOM     73  C   UNL d   1      14.860  -2.055   1.505  0.00  0.00     0.029 A 
ATOM     74  C   UNL d   1      15.179  -1.577   0.242  0.00  0.00     0.091 A 
ATOM     75  C   UNL d   1      14.214  -0.859  -0.496  0.00  0.00     0.004 A 
ATOM     76  C   UNL d   1      14.546  -0.390  -1.772  0.00  0.00     0.040 A 
ATOM     77  C   UNL d   1      12.907  -0.617   0.043  0.00  0.00     0.027 A 
ATOM     78  C   UNL d   1      13.633   0.320  -2.536  0.00  0.00     0.083 A 
ATOM     79  C   UNL d   1      12.371   0.587  -2.022  0.00  0.00     0.053 A 
ATOM     80  C   UNL d   1      11.985   0.142  -0.754  0.00  0.00     0.095 A 
BRANCH  74  81
ATOM     81  S   UNL d   1      16.800  -1.899  -0.378  0.00  0.00     0.138 S 
ATOM     82  O   UNL d   1      17.679  -2.768   0.759  0.00  0.00    -0.591 OA
ATOM     83  O   UNL d   1      16.711  -2.701  -1.646  0.00  0.00    -0.591 OA
ATOM     84  O   UNL d   1      17.502  -0.597  -0.644  0.00  0.00    -0.591 OA
ENDBRANCH  74  81
BRANCH  78  85
ATOM     85  S   UNL d   1      14.077   0.891  -4.133  0.00  0.00     0.137 S 
ATOM     86  O   UNL d   1      14.728   2.434  -4.016  0.00  0.00    -0.591 OA
ATOM     87  O   UNL d   1      12.854   0.928  -5.009  0.00  0.00    -0.591 OA
ATOM     88  O   UNL d   1      15.090  -0.038  -4.743  0.00  0.00    -0.591 OA
ENDBRANCH  78  85
BRANCH  80  89
ATOM     89  S   UNL d   1      10.349   0.609  -0.276  0.00  0.00     0.138 S 
ATOM     90  O   UNL d   1      10.396   1.472   1.162  0.00  0.00    -0.591 OA
ATOM     91  O   UNL d   1       9.744   1.494  -1.328  0.00  0.00    -0.591 OA
ATOM     92  O   UNL d   1       9.484  -0.611  -0.132  0.00  0.00    -0.591 OA
ENDBRANCH  80  89
ENDBRANCH  69  71
ENDBRANCH  62  67
ENDBRANCH  58  60
ENDBRANCH  54  56
ENDBRANCH   5  50
TORSDOF 16
