REMARK  12 active torsions:
REMARK  status: ('A' for Active; 'I' for Inactive)
REMARK    1  A    between atoms: C_3  and  C_2 
REMARK    2  A    between atoms: C_4  and  O_54 
REMARK    3  A    between atoms: C_5  and  O_51 
REMARK    4  A    between atoms: C_11  and  O_47 
REMARK    5  A    between atoms: C_12  and  O_34 
REMARK    6  A    between atoms: C_14  and  O_20 
REMARK    7  A    between atoms: C_21  and  O_20 
REMARK    8  A    between atoms: C_23  and  O_31 
REMARK    9  A    between atoms: C_24  and  O_28 
REMARK   10  A    between atoms: C_35  and  O_34 
REMARK   11  A    between atoms: C_36  and  O_44 
REMARK   12  A    between atoms: C_37  and  N_56 
ROOT
ATOM      1  C   UNL d   1       1.874  -4.636   1.370  0.00  0.00     0.168 C 
ATOM      2  C   UNL d   1       2.611  -3.818   0.282  0.00  0.00     0.107 C 
ATOM      3  C   UNL d   1       3.467  -2.669   0.879  0.00  0.00     0.165 C 
ATOM      4  C   UNL d   1       4.053  -1.668  -0.134  0.00  0.00     0.083 C 
ATOM      5  C   UNL d   1       3.051  -0.794  -0.863  0.00  0.00     0.137 C 
ATOM      6  O   UNL d   1       2.695  -1.151  -1.974  0.00  0.00    -0.297 OA
ATOM      7  C   UNL d   1       2.549   0.542  -0.363  0.00  0.00     0.054 C 
ATOM      8  C   UNL d   1       2.386   0.607   1.161  0.00  0.00     0.052 C 
ATOM      9  C   UNL d   1       1.460   1.733   1.672  0.00  0.00     0.084 C 
ATOM     10  C   UNL d   1       0.032   1.564   1.067  0.00  0.00     0.165 C 
ATOM     11  C   UNL d   1      -0.854   0.409   1.597  0.00  0.00     0.043 C 
ATOM     12  C   UNL d   1      -0.305  -1.013   1.290  0.00  0.00     0.144 C 
ATOM     13  C   UNL d   1      -0.989  -2.223   1.992  0.00  0.00     0.111 C 
ATOM     14  C   UNL d   1      -0.325  -3.505   1.583  0.00  0.00     0.265 C 
ATOM     15  O   UNL d   1      -0.901  -4.280   0.773  0.00  0.00    -0.265 OA
ATOM     16  O   UNL d   1       0.946  -3.814   2.077  0.00  0.00    -0.312 OA
ATOM     17  C   UNL d   1      -0.918  -2.135   3.512  0.00  0.00     0.023 C 
ATOM     18  C   UNL d   1      -1.402   0.659   2.996  0.00  0.00     0.015 C 
ATOM     19  C   UNL d   1       1.386   1.638   3.201  0.00  0.00     0.049 C 
ATOM     20  C   UNL d   1       3.453   1.647  -0.881  0.00  0.00     0.018 C 
ATOM     21  C   UNL d   1       5.199  -0.871   0.470  0.00  0.00     0.020 C 
ATOM     22  C   UNL d   1       3.521  -4.746  -0.506  0.00  0.00     0.051 C 
ENDROOT
BRANCH  10  23
ATOM     23  O   UNL d   1      -0.690   2.764   1.134  0.00  0.00    -0.350 OA
BRANCH  23  24
ATOM     24  C   UNL d   1      -0.743   3.251  -0.181  0.00  0.00     0.291 C 
ATOM     25  O   UNL d   1      -1.882   2.750  -0.875  0.00  0.00    -0.354 OA
ATOM     26  C   UNL d   1      -3.068   3.463  -0.553  0.00  0.00     0.122 C 
ATOM     27  C   UNL d   1      -2.980   4.979  -0.773  0.00  0.00     0.070 C 
ATOM     28  C   UNL d   1      -3.608   3.114   0.827  0.00  0.00     0.040 C 
ATOM     29  C   UNL d   1      -1.575   5.391  -1.229  0.00  0.00     0.257 C 
ATOM     30  C   UNL d   1      -0.564   4.783  -0.248  0.00  0.00     0.206 C 
BRANCH  29  31
ATOM     31  N   UNL d   1      -1.445   6.854  -1.315  0.00  0.00     0.087 N 
ATOM     32  C   UNL d   1      -2.348   7.335  -2.352  0.00  0.00     0.310 C 
ATOM     33  C   UNL d   1      -0.105   7.181  -1.792  0.00  0.00     0.310 C 
ENDBRANCH  29  31
BRANCH  30  34
ATOM     34  O   UNL d   1      -0.705   5.364   1.020  0.00  0.00    -0.388 OA
ATOM     35  HO  UNL d   1      -0.595   6.307   0.979  1.00  0.00     0.210 HD
ENDBRANCH  30  34
ENDBRANCH  23  24
ENDBRANCH  10  23
BRANCH   9  36
ATOM     36  O   UNL d   1       1.950   3.010   1.281  0.00  0.00    -0.383 OA
ATOM     37  C   UNL d   1       3.213   3.260   1.855  0.00  0.00     0.202 C 
ENDBRANCH   9  36
BRANCH  12  38
ATOM     38  O   UNL d   1      -0.173  -1.229  -0.106  0.00  0.00    -0.355 OA
BRANCH  38  39
ATOM     39  C   UNL d   1      -1.421  -1.027  -0.731  0.00  0.00     0.263 C 
ATOM     40  O   UNL d   1      -1.316  -0.010  -1.727  0.00  0.00    -0.354 OA
ATOM     41  C   UNL d   1      -1.334  -0.523  -3.049  0.00  0.00     0.152 C 
ATOM     42  C   UNL d   1      -2.646  -1.275  -3.364  0.00  0.00     0.181 C 
ATOM     43  C   UNL d   1      -0.071  -1.319  -3.372  0.00  0.00     0.042 C 
ATOM     44  C   UNL d   1      -3.184  -2.120  -2.168  0.00  0.00     0.089 C 
ATOM     45  C   UNL d   1      -2.039  -2.362  -1.193  0.00  0.00     0.101 C 
ATOM     46  C   UNL d   1      -3.679  -3.508  -2.597  0.00  0.00     0.049 C 
BRANCH  42  47
ATOM     47  O   UNL d   1      -2.534  -2.007  -4.552  0.00  0.00    -0.390 OA
ATOM     48  HO  UNL d   1      -2.206  -1.492  -5.280  1.00  0.00     0.210 HD
ENDBRANCH  42  47
BRANCH  44  49
ATOM     49  O   UNL d   1      -4.200  -1.417  -1.465  0.00  0.00    -0.383 OA
ATOM     50  C   UNL d   1      -5.305  -1.198  -2.309  0.00  0.00     0.202 C 
ENDBRANCH  44  49
ENDBRANCH  38  39
ENDBRANCH  12  38
BRANCH   3  51
ATOM     51  O   UNL d   1       2.832  -2.013   1.936  0.00  0.00    -0.392 OA
ATOM     52  HO  UNL d   1       3.356  -1.310   2.301  1.00  0.00     0.210 HD
ENDBRANCH   3  51
BRANCH   1  53
ATOM     53  C   UNL d   1       2.840  -5.278   2.363  0.00  0.00     0.031 C 
ATOM     54  C   UNL d   1       2.131  -6.378   3.135  0.00  0.00     0.007 C 
ENDBRANCH   1  53
BRANCH   2  55
ATOM     55  O   UNL d   1       1.659  -3.311  -0.601  0.00  0.00    -0.385 OA
ATOM     56  HO  UNL d   1       2.112  -2.808  -1.268  1.00  0.00     0.210 HD
ENDBRANCH   2  55
TORSDOF 12
