REMARK  10 active torsions:
REMARK  status: ('A' for Active; 'I' for Inactive)
REMARK    1  A    between atoms: C_3  and  O_1 
REMARK    2  A    between atoms: C_4  and  N_24 
REMARK    3  A    between atoms: C_6  and  C_10 
REMARK    4  A    between atoms: C_7  and  O_8 
REMARK    5  A    between atoms: C_10  and  O_11 
REMARK    6  A    between atoms: O_11  and  P_12 
REMARK    7  A    between atoms: P_12  and  O_13 
REMARK    8  A    between atoms: O_13  and  P_14 
REMARK    9  A    between atoms: P_14  and  O_15 
REMARK   10  A    between atoms: O_15  and  P_16 
ROOT
ATOM      1  C   UNL d   1      -0.860  -0.519   1.242  0.00  0.00     0.198 C 
ATOM      2  C   UNL d   1      -1.832   0.631   1.160  0.00  0.00     0.262 C 
ATOM      3  O   UNL d   1      -1.120   1.817   0.901  0.00  0.00    -0.353 OA
ATOM      4  C   UNL d   1       0.228   1.577   1.243  0.00  0.00     0.180 C 
ATOM      5  C   UNL d   1       0.413   0.141   1.691  0.00  0.00     0.182 C 
ENDROOT
BRANCH   4   6
ATOM      6  C   UNL d   1       1.138   1.899   0.062  0.00  0.00     0.216 C 
BRANCH   6   7
ATOM      7  O   UNL d   1       0.722   1.218  -1.087  0.00  0.00    -0.287 OA
BRANCH   7   8
ATOM      8  P   UNL d   1       2.095   0.400  -1.657  0.00  0.00     0.417 P 
ATOM      9  O   UNL d   1       1.667  -0.437  -3.063  0.00  0.00    -0.624 OA
ATOM     10  O   UNL d   1       3.178   1.406  -1.985  0.00  0.00    -0.624 OA
BRANCH   8  11
ATOM     11  O   UNL d   1       2.615  -0.702  -0.465  0.00  0.00    -0.180 OA
BRANCH  11  12
ATOM     12  P   UNL d   1       4.109  -1.353  -0.964  0.00  0.00     0.428 P 
ATOM     13  O   UNL d   1       4.534  -2.606   0.091  0.00  0.00    -0.624 OA
ATOM     14  O   UNL d   1       3.986  -1.939  -2.353  0.00  0.00    -0.624 OA
BRANCH  12  15
ATOM     15  O   UNL d   1       5.325  -0.160  -0.975  0.00  0.00    -0.173 OA
BRANCH  15  16
ATOM     16  P   UNL d   1       5.521   0.399   0.622  0.00  0.00     0.431 P 
ATOM     17  O   UNL d   1       6.071  -0.847   1.626  0.00  0.00    -0.616 OA
ATOM     18  O   UNL d   1       6.674   1.635   0.619  0.00  0.00    -0.616 OA
ATOM     19  O   UNL d   1       4.221   0.951   1.164  0.00  0.00    -0.616 OA
ENDBRANCH  15  16
ENDBRANCH  12  15
ENDBRANCH  11  12
ENDBRANCH   8  11
ENDBRANCH   7   8
ENDBRANCH   6   7
ENDBRANCH   4   6
BRANCH   5  20
ATOM     20  O   UNL d   1       0.532   0.117   3.084  0.00  0.00    -0.390 OA
ATOM     21  HO  UNL d   1       0.648  -0.783   3.365  1.00  0.00     0.210 HD
ENDBRANCH   5  20
BRANCH   2  22
ATOM     22  N   UNL d   1      -2.810   0.391   0.107  0.00  0.00    -0.297 N 
ATOM     23  C   UNL d   1      -4.081   0.006   0.250  0.00  0.00     0.142 A 
ATOM     24  N   UNL d   1      -4.760  -0.210   1.403  0.00  0.00    -0.336 N 
ATOM     25  C   UNL d   1      -4.638  -0.162  -0.968  0.00  0.00     0.119 A 
ATOM     26  C   UNL d   1      -6.065  -0.609   1.310  0.00  0.00     0.183 A 
ATOM     27  HN  UNL d   1      -4.312  -0.078   2.311  1.00  0.00     0.168 HD
ATOM     28  N   UNL d   1      -6.654  -0.784   0.083  0.00  0.00    -0.339 N 
ATOM     29  C   UNL d   1      -5.960  -0.567  -1.074  0.00  0.00     0.148 A 
ATOM     30  HN  UNL d   1      -7.629  -1.081   0.033  1.00  0.00     0.167 HD
ATOM     31  N   UNL d   1      -6.581  -0.756  -2.341  0.00  0.00    -0.080 NA
ATOM     32  N   UNL d   1      -3.741   0.103  -1.937  0.00  0.00    -0.346 N 
ATOM     33  C   UNL d   1      -2.618   0.437  -1.238  0.00  0.00     0.188 A 
ATOM     34  HN  UNL d   1      -3.869   0.063  -2.948  1.00  0.00     0.167 HD
ENDBRANCH   2  22
BRANCH   1  35
ATOM     35  O   UNL d   1      -1.307  -1.477   2.155  0.00  0.00    -0.388 OA
ATOM     36  HO  UNL d   1      -0.695  -2.201   2.207  1.00  0.00     0.210 HD
ENDBRANCH   1  35
TORSDOF 10
