REMARK  Name = fda_6736
REMARK  6 active torsions:
REMARK  status: ('A' for Active; 'I' for Inactive)
REMARK    1  A    between atoms: C_8  and  N_9
REMARK    2  A    between atoms: C_10  and  C_12
REMARK    3  A    between atoms: C_12  and  C_21
REMARK    4  A    between atoms: N_13  and  O_14
REMARK    5  A    between atoms: O_14  and  C_15
REMARK    6  A    between atoms: C_15  and  C_18
REMARK                            x       y       z     vdW  Elec       q    Type
REMARK                         _______ _______ _______ _____ _____    ______ ____
ROOT
ATOM      1  C   UNL A   1      -1.086   0.010  -0.336  0.00  0.00    +0.192 C 
ATOM      2  N   UNL A   1      -1.466  -1.149   0.117  0.00  0.00    -0.076 NA
ENDROOT
BRANCH   1   3
ATOM      3  C   UNL A   1      -1.871   1.244  -0.072  0.00  0.00    +0.115 A 
ATOM      4  C   UNL A   1      -3.262   1.250   0.091  0.00  0.00    +0.059 A 
ATOM      5  S   UNL A   1      -3.725   2.849   0.356  0.00  0.00    -0.048 S 
ATOM      6  C   UNL A   1      -2.166   3.442   0.249  0.00  0.00    +0.201 A 
ATOM      7  N   UNL A   1      -1.810   4.812   0.385  0.00  0.00    -0.100 NA
ATOM      8  N   UNL A   1      -1.271   2.465   0.015  0.00  0.00    -0.220 NA
ENDBRANCH   1   3
BRANCH   1  10
ATOM      9  N   UNL A   1       0.521   1.275  -1.820  0.00  0.00    -0.190 NA
ATOM     10  C   UNL A   1       0.175   0.077  -1.102  0.00  0.00    +0.288 C 
ATOM     11  O   UNL A   1       0.931  -0.931  -1.135  0.00  0.00    -0.267 OA
BRANCH   9  19
ATOM     12  C   UNL A   1       5.365  -1.024   0.795  0.00  0.00    +0.029 C 
ATOM     13  C   UNL A   1       4.369  -0.257   0.005  0.00  0.00    -0.018 C 
ATOM     14  C   UNL A   1       4.483  -0.196  -1.316  0.00  0.00    +0.061 C 
ATOM     15  N   UNL A   1       3.549   0.608  -2.018  0.00  0.00    -0.247 N 
ATOM     16  C   UNL A   1       2.899   1.840  -1.653  0.00  0.00    +0.157 C 
ATOM     17  S   UNL A   1       2.634   1.966   0.172  0.00  0.00    -0.114 S 
ATOM     18  C   UNL A   1       3.130   0.266   0.681  0.00  0.00    +0.082 C 
ATOM     19  C   UNL A   1       1.770   1.601  -2.524  0.00  0.00    +0.201 C 
ATOM     20  C   UNL A   1       2.494   0.385  -3.029  0.00  0.00    +0.253 C 
ATOM     21  O   UNL A   1       2.267  -0.490  -3.905  0.00  0.00    -0.273 OA
ENDBRANCH   9  19
ENDBRANCH   1  10
BRANCH   2  22
ATOM     22  O   UNL A   1      -2.599  -1.327   0.883  0.00  0.00    -0.374 OA
BRANCH  22  23
ATOM     23  C   UNL A   1      -2.970  -2.614   1.368  0.00  0.00    +0.253 C 
ATOM     24  C   UNL A   1      -4.275  -2.488   2.127  0.00  0.00    +0.058 C 
ATOM     25  C   UNL A   1      -3.183  -3.558   0.195  0.00  0.00    +0.058 C 
BRANCH  23  26
ATOM     26  C   UNL A   1      -1.919  -3.157   2.296  0.00  0.00    +0.403 C 
ATOM     27  O   UNL A   1      -1.833  -4.524   2.538  0.00  0.00    -0.242 OA
ATOM     28  O   UNL A   1      -1.152  -2.373   2.917  0.00  0.00    -0.242 OA
ENDBRANCH  23  26
ENDBRANCH  22  23
ENDBRANCH   2  22
TORSDOF 6
