REMARK  4 active torsions:
REMARK  status: ('A' for Active; 'I' for Inactive)
REMARK    1  A    between atoms: N_1  and  C_5 
REMARK    2  A    between atoms: C_5  and  C_6 
REMARK    3  A    between atoms: C_9  and  S_10 
REMARK    4  A    between atoms: S_10  and  N_11 
ROOT
ATOM      1  C   UNL d   1      -2.035  -0.265  -0.232  0.00  0.00    -0.033 A 
ATOM      2  C   UNL d   1      -1.254  -1.290   0.313  0.00  0.00     0.010 A 
ATOM      3  C   UNL d   1       0.133  -1.137   0.408  0.00  0.00     0.026 A 
ATOM      4  C   UNL d   1       0.741   0.043  -0.035  0.00  0.00     0.079 A 
ATOM      5  C   UNL d   1      -0.042   1.069  -0.576  0.00  0.00     0.026 A 
ATOM      6  C   UNL d   1      -1.429   0.916  -0.672  0.00  0.00     0.010 A 
ENDROOT
BRANCH   4   7
ATOM      7  S   UNL d   1       2.482   0.229   0.073  0.00  0.00     0.256 S 
ATOM      8  O   UNL d   1       2.825   1.680   0.264  0.00  0.00    -0.201 OA
ATOM      9  O   UNL d   1       3.004  -0.552   1.245  0.00  0.00    -0.201 OA
BRANCH   7  10
ATOM     10  N   UNL d   1       3.216  -0.351  -1.379  0.00  0.00    -0.324 N 
ATOM     11  HN2 UNL d   1       2.702  -0.739  -2.170  1.00  0.00     0.169 HD
ATOM     12  HN1 UNL d   1       4.228  -0.242  -1.317  1.00  0.00     0.169 HD
ENDBRANCH   7  10
ENDBRANCH   4   7
BRANCH   1  13
ATOM     13  C   UNL d   1      -3.513  -0.419  -0.314  0.00  0.00     0.268 C 
BRANCH  13  14
ATOM     14  N   UNL d   1      -4.128   0.076   0.906  0.00  0.00    -0.075 N 
ATOM     15  HN3 UNL d   1      -3.741  -0.369   1.738  1.00  0.00     0.274 HD
ATOM     16  HN2 UNL d   1      -3.853   1.037   1.111  1.00  0.00     0.274 HD
ATOM     17  HN1 UNL d   1      -5.141  -0.029   0.850  1.00  0.00     0.274 HD
ENDBRANCH  13  14
ENDBRANCH   1  13
TORSDOF 4
