REMARK  5 active torsions:
REMARK  status: ('A' for Active; 'I' for Inactive)
REMARK    1  A    between atoms: C_2  and  C_3 
REMARK    2  A    between atoms: C_2  and  O_17 
REMARK    3  A    between atoms: C_3  and  N_4 
REMARK    4  A    between atoms: O_17  and  C_18 
REMARK    5  A    between atoms: C_18  and  P_19 
ROOT
ATOM      1  N   UNL d   1      -0.700  -0.080   0.244  0.00  0.00    -0.325 N 
ATOM      2  C   UNL d   1      -0.681  -1.279   0.879  0.00  0.00     0.185 A 
ATOM      3  N   UNL d   1      -1.849  -1.967   0.725  0.00  0.00    -0.346 N 
ATOM      4  HN  UNL d   1      -2.099  -2.883   1.098  1.00  0.00     0.167 HD
ATOM      5  C   UNL d   1      -2.593  -1.144  -0.038  0.00  0.00     0.119 A 
ATOM      6  C   UNL d   1      -1.905  -0.019  -0.327  0.00  0.00     0.140 A 
ATOM      7  N   UNL d   1      -2.416   0.979  -1.089  0.00  0.00    -0.336 N 
ATOM      8  HN  UNL d   1      -1.872   1.818  -1.293  1.00  0.00     0.168 HD
ATOM      9  C   UNL d   1      -3.684   0.823  -1.577  0.00  0.00     0.183 A 
ATOM     10  N   UNL d   1      -4.404  -0.312  -1.297  0.00  0.00    -0.339 N 
ATOM     11  HN  UNL d   1      -5.349  -0.410  -1.669  1.00  0.00     0.167 HD
ATOM     12  C   UNL d   1      -3.880  -1.312  -0.528  0.00  0.00     0.148 A 
ATOM     13  N   UNL d   1      -4.635  -2.485  -0.247  0.00  0.00    -0.080 NA
ENDROOT
BRANCH   1  14
ATOM     14  C   UNL d   1       0.380   0.893   0.168  0.00  0.00     0.163 C 
BRANCH  14  15
ATOM     15  C   UNL d   1       1.399   0.478  -0.884  0.00  0.00     0.136 C 
ATOM     16  C   UNL d   1       0.855   0.755  -2.273  0.00  0.00     0.041 C 
BRANCH  15  17
ATOM     17  O   UNL d   1       2.579   1.199  -0.697  0.00  0.00    -0.371 OA
BRANCH  17  18
ATOM     18  C   UNL d   1       3.540   0.238  -0.378  0.00  0.00     0.313 C 
BRANCH  18  19
ATOM     19  P   UNL d   1       4.342   0.676   1.189  0.00  0.00     0.283 P 
ATOM     20  O   UNL d   1       5.083   2.189   1.042  0.00  0.00    -0.638 OA
ATOM     21  O   UNL d   1       3.184   0.732   2.420  0.00  0.00    -0.638 OA
ATOM     22  O   UNL d   1       5.385  -0.364   1.527  0.00  0.00    -0.638 OA
ENDBRANCH  18  19
ENDBRANCH  17  18
ENDBRANCH  15  17
ENDBRANCH  14  15
ENDBRANCH   1  14
TORSDOF 5
