REMARK  4 active torsions:
REMARK  status: ('A' for Active; 'I' for Inactive)
REMARK    1  A    between atoms: C_4  and  O_5 
REMARK    2  A    between atoms: O_5  and  C_6 
REMARK    3  A    between atoms: C_19  and  O_20 
REMARK    4  A    between atoms: O_20  and  C_21 
ROOT
ATOM      1  C   UNL d   1      -1.641  -0.288   1.098  0.00  0.00     0.002 C 
ATOM      2  C   UNL d   1      -2.573  -1.040   2.024  0.00  0.00     0.010 C 
ATOM      3  C   UNL d   1      -3.961  -0.499   1.663  0.00  0.00     0.053 C 
ATOM      4  C   UNL d   1      -3.811   0.343   0.381  0.00  0.00     0.140 C 
ATOM      5  C   UNL d   1      -3.840   1.777   0.746  0.00  0.00    -0.077 C 
ATOM      6  C   UNL d   1      -3.864   2.946   1.043  0.00  0.00     0.015 C 
ATOM      7  C   UNL d   1      -2.436  -0.078  -0.178  0.00  0.00     0.003 C 
ATOM      8  C   UNL d   1      -2.568  -1.392  -0.970  0.00  0.00     0.020 C 
ATOM      9  C   UNL d   1      -1.701   0.953  -1.051  0.00  0.00     0.014 C 
ATOM     10  C   UNL d   1      -0.260   0.488  -1.337  0.00  0.00     0.006 C 
ATOM     11  C   UNL d   1       0.500   0.193  -0.032  0.00  0.00    -0.002 C 
ATOM     12  C   UNL d   1       1.929  -0.289  -0.266  0.00  0.00     0.019 C 
ATOM     13  C   UNL d   1       2.709   0.605  -1.228  0.00  0.00     0.012 C 
ATOM     14  C   UNL d   1       4.122   0.051  -1.350  0.00  0.00     0.037 C 
ATOM     15  C   UNL d   1       4.842   0.142   0.000  0.00  0.00     0.155 C 
ATOM     16  C   UNL d   1       3.968  -0.250   1.168  0.00  0.00     0.008 C 
ATOM     17  C   UNL d   1       2.637  -0.403   1.070  0.00  0.00    -0.077 C 
ATOM     18  C   UNL d   1       1.845  -0.606   2.333  0.00  0.00     0.034 C 
ATOM     19  C   UNL d   1       0.486  -1.279   2.096  0.00  0.00     0.009 C 
ATOM     20  C   UNL d   1      -0.254  -0.853   0.813  0.00  0.00    -0.005 C 
ENDROOT
BRANCH   4  21
ATOM     21  O   UNL d   1      -4.857   0.055  -0.557  0.00  0.00    -0.296 OA
BRANCH  21  22
ATOM     22  C   UNL d   1      -6.225   0.206  -0.295  0.00  0.00     0.256 C 
ATOM     23  C   UNL d   1      -7.210  -0.128  -1.356  0.00  0.00     0.126 C 
ATOM     24  O   UNL d   1      -6.635   0.620   0.822  0.00  0.00    -0.266 OA
ENDBRANCH  21  22
ENDBRANCH   4  21
BRANCH  15  25
ATOM     25  O   UNL d   1       6.019  -0.656  -0.008  0.00  0.00    -0.312 OA
BRANCH  25  26
ATOM     26  C   UNL d   1       7.179  -0.273  -0.684  0.00  0.00     0.255 C 
ATOM     27  C   UNL d   1       8.363  -1.171  -0.672  0.00  0.00     0.126 C 
ATOM     28  O   UNL d   1       7.238   0.825  -1.299  0.00  0.00    -0.266 OA
ENDBRANCH  25  26
ENDBRANCH  15  25
TORSDOF 4
