REMARK  22 active torsions:
REMARK  status: ('A' for Active; 'I' for Inactive)
REMARK    1  A    between atoms: C_2  and  N_62 
REMARK    2  A    between atoms: C_3  and  O_44 
REMARK    3  A    between atoms: C_4  and  O_21 
REMARK    4  A    between atoms: C_5  and  O_7 
REMARK    5  A    between atoms: C_6  and  N_46 
REMARK    6  A    between atoms: C_8  and  O_7 
REMARK    7  A    between atoms: C_9  and  N_50 
REMARK    8  A    between atoms: C_10  and  O_19 
REMARK    9  A    between atoms: C_11  and  O_17 
REMARK   10  A    between atoms: C_12  and  C_14 
REMARK   11  A    between atoms: C_14  and  O_15 
REMARK   12  A    between atoms: C_22  and  O_21 
REMARK   13  A    between atoms: C_23  and  O_42 
REMARK   14  A    between atoms: C_24  and  O_30 
REMARK   15  A    between atoms: C_25  and  C_27 
REMARK   16  A    between atoms: C_27  and  O_28 
REMARK   17  A    between atoms: C_31  and  O_30 
REMARK   18  A    between atoms: C_32  and  N_58 
REMARK   19  A    between atoms: C_33  and  O_40 
REMARK   20  A    between atoms: C_34  and  O_38 
REMARK   21  A    between atoms: C_35  and  C_37 
REMARK   22  A    between atoms: C_37  and  N_54 
ROOT
ATOM      1  C   UNL d   1      -3.926  -4.416  -0.111  0.00  0.00     0.071 C 
ATOM      2  C   UNL d   1      -3.138  -4.516   1.191  0.00  0.00     0.216 C 
ATOM      3  C   UNL d   1      -2.525  -3.161   1.559  0.00  0.00     0.180 C 
ATOM      4  C   UNL d   1      -1.640  -2.640   0.421  0.00  0.00     0.186 C 
ATOM      5  C   UNL d   1      -2.418  -2.562  -0.903  0.00  0.00     0.186 C 
ATOM      6  C   UNL d   1      -3.020  -3.930  -1.238  0.00  0.00     0.217 C 
ENDROOT
BRANCH   4   7
ATOM      7  O   UNL d   1      -1.129  -1.381   0.754  0.00  0.00    -0.348 OA
BRANCH   7   8
ATOM      8  C   UNL d   1       0.223  -1.422   0.395  0.00  0.00     0.292 C 
ATOM      9  O   UNL d   1       0.434  -0.682  -0.778  0.00  0.00    -0.348 OA
ATOM     10  C   UNL d   1       1.803  -0.383  -0.758  0.00  0.00     0.180 C 
ATOM     11  C   UNL d   1       2.241  -0.205   0.697  0.00  0.00     0.189 C 
ATOM     12  C   UNL d   1       1.113  -0.846   1.485  0.00  0.00     0.205 C 
BRANCH  10  13
ATOM     13  C   UNL d   1       2.097   0.809  -1.659  0.00  0.00     0.198 C 
BRANCH  13  14
ATOM     14  O   UNL d   1       3.472   0.924  -1.862  0.00  0.00    -0.398 OA
ATOM     15  HO  UNL d   1       3.655   1.668  -2.424  1.00  0.00     0.209 HD
ENDBRANCH  13  14
ENDBRANCH  10  13
BRANCH  11  16
ATOM     16  O   UNL d   1       2.409   1.147   1.036  0.00  0.00    -0.348 OA
BRANCH  16  17
ATOM     17  C   UNL d   1       3.617   1.195   1.738  0.00  0.00     0.294 C 
ATOM     18  O   UNL d   1       4.582   1.887   0.981  0.00  0.00    -0.349 OA
ATOM     19  C   UNL d   1       5.822   1.650   1.607  0.00  0.00     0.181 C 
ATOM     20  C   UNL d   1       5.907   2.389   2.953  0.00  0.00     0.179 C 
ATOM     21  C   UNL d   1       4.761   1.892   3.845  0.00  0.00     0.184 C 
ATOM     22  C   UNL d   1       3.416   1.867   3.105  0.00  0.00     0.269 C 
BRANCH  19  23
ATOM     23  C   UNL d   1       6.985   1.976   0.673  0.00  0.00     0.264 C 
BRANCH  23  24
ATOM     24  N   UNL d   1       6.861   3.318   0.128  0.00  0.00    -0.077 N 
ATOM     25  HN3 UNL d   1       5.962   3.454  -0.333  1.00  0.00     0.274 HD
ATOM     26  HN2 UNL d   1       6.766   4.016   0.866  1.00  0.00     0.274 HD
ATOM     27  HN1 UNL d   1       7.639   3.536  -0.496  1.00  0.00     0.274 HD
ENDBRANCH  23  24
ENDBRANCH  19  23
BRANCH  20  28
ATOM     28  O   UNL d   1       5.813   3.772   2.766  0.00  0.00    -0.390 OA
ATOM     29  HO  UNL d   1       6.523   4.079   2.214  1.00  0.00     0.210 HD
ENDBRANCH  20  28
BRANCH  21  30
ATOM     30  O   UNL d   1       4.678   2.637   5.024  0.00  0.00    -0.391 OA
ATOM     31  HO  UNL d   1       5.511   2.653   5.482  1.00  0.00     0.210 HD
ENDBRANCH  21  30
BRANCH  22  32
ATOM     32  N   UNL d   1       2.892   3.216   2.935  0.00  0.00    -0.068 N 
ATOM     33  HN3 UNL d   1       3.479   3.777   2.319  1.00  0.00     0.275 HD
ATOM     34  HN2 UNL d   1       2.037   3.224   2.378  1.00  0.00     0.275 HD
ATOM     35  HN1 UNL d   1       2.758   3.661   3.843  1.00  0.00     0.275 HD
ENDBRANCH  22  32
ENDBRANCH  16  17
ENDBRANCH  11  16
BRANCH  12  36
ATOM     36  O   UNL d   1       0.417   0.105   2.243  0.00  0.00    -0.388 OA
ATOM     37  HO  UNL d   1       0.972   0.465   2.924  1.00  0.00     0.210 HD
ENDBRANCH  12  36
ENDBRANCH   7   8
ENDBRANCH   4   7
BRANCH   3  38
ATOM     38  O   UNL d   1      -1.759  -3.292   2.719  0.00  0.00    -0.391 OA
ATOM     39  HO  UNL d   1      -1.379  -2.452   2.947  1.00  0.00     0.210 HD
ENDBRANCH   3  38
BRANCH   5  40
ATOM     40  O   UNL d   1      -3.416  -1.579  -0.835  0.00  0.00    -0.349 OA
BRANCH  40  41
ATOM     41  C   UNL d   1      -3.000  -0.584  -1.724  0.00  0.00     0.294 C 
ATOM     42  O   UNL d   1      -3.942  -0.442  -2.761  0.00  0.00    -0.349 OA
ATOM     43  C   UNL d   1      -3.325   0.347  -3.751  0.00  0.00     0.179 C 
ATOM     44  C   UNL d   1      -3.170   1.802  -3.277  0.00  0.00     0.180 C 
ATOM     45  C   UNL d   1      -2.324   1.803  -1.996  0.00  0.00     0.184 C 
ATOM     46  C   UNL d   1      -2.799   0.749  -0.985  0.00  0.00     0.269 C 
BRANCH  43  47
ATOM     47  C   UNL d   1      -4.063   0.236  -5.080  0.00  0.00     0.198 C 
BRANCH  47  48
ATOM     48  O   UNL d   1      -5.419   0.530  -4.925  0.00  0.00    -0.398 OA
ATOM     49  HO  UNL d   1      -5.879   0.461  -5.753  1.00  0.00     0.209 HD
ENDBRANCH  47  48
ENDBRANCH  43  47
BRANCH  44  50
ATOM     50  O   UNL d   1      -4.420   2.379  -3.033  0.00  0.00    -0.390 OA
ATOM     51  HO  UNL d   1      -4.944   2.378  -3.826  1.00  0.00     0.210 HD
ENDBRANCH  44  50
BRANCH  45  52
ATOM     52  O   UNL d   1      -2.281   3.075  -1.420  0.00  0.00    -0.391 OA
ATOM     53  HO  UNL d   1      -1.987   3.727  -2.045  1.00  0.00     0.210 HD
ENDBRANCH  45  52
BRANCH  46  54
ATOM     54  N   UNL d   1      -4.039   1.165  -0.343  0.00  0.00    -0.068 N 
ATOM     55  HN3 UNL d   1      -4.813   1.210  -1.006  1.00  0.00     0.275 HD
ATOM     56  HN2 UNL d   1      -4.410   0.441   0.273  1.00  0.00     0.275 HD
ATOM     57  HN1 UNL d   1      -3.906   2.049   0.147  1.00  0.00     0.275 HD
ENDBRANCH  46  54
ENDBRANCH  40  41
ENDBRANCH   5  40
BRANCH   2  58
ATOM     58  N   UNL d   1      -4.025  -4.961   2.251  0.00  0.00    -0.072 N 
ATOM     59  HN3 UNL d   1      -4.850  -4.367   2.342  1.00  0.00     0.274 HD
ATOM     60  HN2 UNL d   1      -4.501  -5.833   2.018  1.00  0.00     0.274 HD
ATOM     61  HN1 UNL d   1      -3.498  -5.028   3.122  1.00  0.00     0.274 HD
ENDBRANCH   2  58
BRANCH   6  62
ATOM     62  N   UNL d   1      -3.769  -3.864  -2.482  0.00  0.00    -0.072 N 
ATOM     63  HN3 UNL d   1      -4.217  -4.752  -2.706  1.00  0.00     0.274 HD
ATOM     64  HN2 UNL d   1      -4.609  -3.292  -2.392  1.00  0.00     0.274 HD
ATOM     65  HN1 UNL d   1      -3.163  -3.539  -3.235  1.00  0.00     0.274 HD
ENDBRANCH   6  62
TORSDOF 22
