REMARK  8 active torsions:
REMARK  status: ('A' for Active; 'I' for Inactive)
REMARK    1  A    between atoms: C_3  and  O_2 
REMARK    2  A    between atoms: C_3  and  N_19 
REMARK    3  A    between atoms: C_8  and  C_17 
REMARK    4  A    between atoms: C_9  and  C_12 
REMARK    5  A    between atoms: C_12  and  O_13 
REMARK    6  A    between atoms: O_13  and  C_14 
REMARK       I    between atoms: N_19  and  C_21 
REMARK    7  A    between atoms: C_21  and  C_23 
REMARK    8  A    between atoms: C_23  and  C_24 
ROOT
ATOM      1  C   UNL d   1      -0.853  -0.207  -0.018  0.00  0.00     0.250 A 
ATOM      2  C   UNL d   1      -0.077  -1.100  -0.845  0.00  0.00     0.221 A 
ATOM      3  N   UNL d   1       0.962  -0.124  -1.082  0.00  0.00    -0.288 N 
ATOM      4  C   UNL d   1       0.161   0.865  -0.331  0.00  0.00     0.285 A 
ATOM      5  O   UNL d   1       0.311   2.077  -0.024  0.00  0.00    -0.267 OA
ATOM      6  C   UNL d   1       2.354  -0.286  -1.327  0.00  0.00     0.121 C 
ATOM      7  C   UNL d   1       2.977  -1.250  -0.623  0.00  0.00    -0.013 C 
ATOM      8  C   UNL d   1       2.226  -1.937   0.488  0.00  0.00     0.115 C 
ATOM      9  S   UNL d   1       0.611  -2.623  -0.054  0.00  0.00    -0.133 SA
ENDROOT
BRANCH   1  10
ATOM     10  O   UNL d   1      -0.903  -0.620   1.335  0.00  0.00    -0.355 OA
ATOM     11  C   UNL d   1      -1.346   0.448   2.128  0.00  0.00     0.205 C 
ENDBRANCH   1  10
BRANCH   1  12
ATOM     12  N   UNL d   1      -2.173   0.001  -0.620  0.00  0.00    -0.319 N 
ATOM     13  C   UNL d   1      -2.987   1.173  -0.494  0.00  0.00     0.225 C 
ATOM     14  O   UNL d   1      -2.563   2.200   0.099  0.00  0.00    -0.273 OA
ATOM     15  HN  UNL d   1      -2.549  -0.763  -1.182  1.00  0.00     0.166 HD
BRANCH  13  16
ATOM     16  C   UNL d   1      -4.367   1.167  -1.053  0.00  0.00     0.148 C 
BRANCH  16  17
ATOM     17  C   UNL d   1      -5.314   0.566  -0.073  0.00  0.00    -0.009 A 
ATOM     18  S   UNL d   1      -5.620  -1.071   0.100  0.00  0.00    -0.106 SA
ATOM     19  C   UNL d   1      -6.681  -0.936   1.400  0.00  0.00     0.050 A 
ATOM     20  C   UNL d   1      -6.787   0.419   1.709  0.00  0.00     0.008 A 
ATOM     21  C   UNL d   1      -6.020   1.262   0.893  0.00  0.00     0.015 A 
ENDBRANCH  16  17
ENDBRANCH  13  16
ENDBRANCH   1  12
BRANCH   6  22
ATOM     22  C   UNL d   1       2.998   0.572  -2.348  0.00  0.00     0.227 C 
ATOM     23  O   UNL d   1       4.218   0.458  -2.636  0.00  0.00    -0.643 OA
ATOM     24  O   UNL d   1       2.237   1.528  -3.010  0.00  0.00    -0.643 OA
ENDBRANCH   6  22
BRANCH   7  25
ATOM     25  C   UNL d   1       4.412  -1.627  -0.839  0.00  0.00     0.217 C 
BRANCH  25  26
ATOM     26  O   UNL d   1       5.165  -1.463   0.359  0.00  0.00    -0.302 OA
BRANCH  26  27
ATOM     27  C   UNL d   1       5.541  -0.210   0.850  0.00  0.00     0.372 C 
ATOM     28  O   UNL d   1       5.243   0.845   0.230  0.00  0.00    -0.242 OA
ATOM     29  N   UNL d   1       6.274  -0.127   2.066  0.00  0.00    -0.032 NA
ENDBRANCH  26  27
ENDBRANCH  25  26
ENDBRANCH   7  25
TORSDOF 8
