REMARK  16 active torsions:
REMARK  status: ('A' for Active; 'I' for Inactive)
REMARK    1  A    between atoms: C_3  and  C_35 
REMARK    2  A    between atoms: C_5  and  C_6 
REMARK    3  A    between atoms: C_6  and  O_7 
REMARK    4  A    between atoms: O_7  and  P_8 
REMARK    5  A    between atoms: P_8  and  O_9 
REMARK    6  A    between atoms: P_8  and  N_16 
REMARK    7  A    between atoms: O_9  and  C_10 
REMARK    8  A    between atoms: C_17  and  N_16 
REMARK    9  A    between atoms: C_17  and  C_18 
REMARK   10  A    between atoms: C_18  and  O_19 
REMARK   11  A    between atoms: O_19  and  C_20 
REMARK   12  A    between atoms: C_20  and  C_21 
REMARK   13  A    between atoms: C_21  and  C_22 
REMARK   14  A    between atoms: C_21  and  C_24 
REMARK   15  A    between atoms: C_29  and  O_30 
REMARK   16  A    between atoms: C_32  and  O_33 
ROOT
ATOM      1  C   UNL d   1      -3.183  -0.179  -1.347  0.00  0.00     0.107 C 
ATOM      2  N   UNL d   1      -3.531  -0.551  -2.386  0.00  0.00    -0.193 NA
ATOM      3  C   UNL d   1      -2.738   0.295  -0.020  0.00  0.00     0.222 C 
ATOM      4  O   UNL d   1      -1.911  -0.698   0.548  0.00  0.00    -0.347 OA
ATOM      5  C   UNL d   1      -0.567  -0.296   0.385  0.00  0.00     0.180 C 
ATOM      6  C   UNL d   1      -0.498   1.100  -0.197  0.00  0.00     0.182 C 
ATOM      7  C   UNL d   1      -1.919   1.577  -0.103  0.00  0.00     0.205 C 
ENDROOT
BRANCH   3   8
ATOM      8  C   UNL d   1      -3.937   0.523   0.867  0.00  0.00     0.086 A 
ATOM      9  N   UNL d   1      -4.982   1.315   0.574  0.00  0.00    -0.252 N 
ATOM     10  C   UNL d   1      -5.820   1.294   1.612  0.00  0.00     0.098 A 
ATOM     11  N   UNL d   1      -5.207   2.023  -0.531  0.00  0.00    -0.289 N 
ATOM     12  C   UNL d   1      -5.337   0.486   2.624  0.00  0.00     0.037 A 
ATOM     13  C   UNL d   1      -6.991   2.040   1.556  0.00  0.00     0.146 A 
ATOM     14  C   UNL d   1      -4.119  -0.007   2.143  0.00  0.00     0.034 A 
ATOM     15  N   UNL d   1      -7.918   2.052   2.637  0.00  0.00    -0.080 NA
ATOM     16  N   UNL d   1      -7.233   2.768   0.429  0.00  0.00    -0.338 N 
ATOM     17  C   UNL d   1      -6.349   2.764  -0.613  0.00  0.00     0.199 A 
ATOM     18  HN  UNL d   1      -8.086   3.323   0.363  1.00  0.00     0.168 HD
ATOM     19  HN  UNL d   1      -4.539   2.011  -1.301  1.00  0.00     0.188 HD
ENDBRANCH   3   8
BRANCH   7  20
ATOM     20  O   UNL d   1      -2.279   2.404  -1.174  0.00  0.00    -0.388 OA
ATOM     21  HO  UNL d   1      -3.178   2.706  -1.114  1.00  0.00     0.210 HD
ENDBRANCH   7  20
BRANCH   5  22
ATOM     22  C   UNL d   1       0.149  -0.355   1.724  0.00  0.00     0.214 C 
BRANCH  22  23
ATOM     23  O   UNL d   1       1.524  -0.193   1.536  0.00  0.00    -0.298 OA
BRANCH  23  24
ATOM     24  P   UNL d   1       2.229  -1.673   1.977  0.00  0.00     0.430 P 
ATOM     25  O   UNL d   1       2.110  -1.871   3.472  0.00  0.00    -0.238 OA
BRANCH  24  26
ATOM     26  O   UNL d   1       1.436  -2.973   1.170  0.00  0.00    -0.259 OA
BRANCH  26  27
ATOM     27  C   UNL d   1       1.344  -3.073  -0.223  0.00  0.00     0.080 A 
ATOM     28  C   UNL d   1       1.940  -2.132  -1.079  0.00  0.00     0.037 A 
ATOM     29  C   UNL d   1       1.815  -2.260  -2.465  0.00  0.00     0.003 A 
ATOM     30  C   UNL d   1       1.096  -3.329  -3.005  0.00  0.00     0.000 A 
ATOM     31  C   UNL d   1       0.503  -4.271  -2.159  0.00  0.00     0.003 A 
ATOM     32  C   UNL d   1       0.628  -4.142  -0.773  0.00  0.00     0.037 A 
ENDBRANCH  26  27
ENDBRANCH  24  26
BRANCH  24  33
ATOM     33  N   UNL d   1       3.925  -1.670   1.522  0.00  0.00    -0.123 NA
BRANCH  33  34
ATOM     34  C   UNL d   1       4.571  -0.554   2.197  0.00  0.00     0.182 C 
ATOM     35  C   UNL d   1       5.999  -0.930   2.538  0.00  0.00     0.039 C 
BRANCH  34  36
ATOM     36  C   UNL d   1       4.566   0.657   1.324  0.00  0.00     0.278 C 
ATOM     37  O   UNL d   1       4.286   1.779   1.826  0.00  0.00    -0.263 OA
BRANCH  36  38
ATOM     38  O   UNL d   1       4.889   0.542  -0.029  0.00  0.00    -0.320 OA
BRANCH  38  39
ATOM     39  C   UNL d   1       4.918   1.673  -0.891  0.00  0.00     0.183 C 
BRANCH  39  40
ATOM     40  C   UNL d   1       5.249   1.256  -2.324  0.00  0.00     0.009 C 
BRANCH  40  41
ATOM     41  C   UNL d   1       6.607   0.576  -2.399  0.00  0.00     0.002 C 
ATOM     42  C   UNL d   1       7.721   1.593  -2.231  0.00  0.00     0.005 C 
ENDBRANCH  40  41
BRANCH  40  43
ATOM     43  C   UNL d   1       4.182   0.327  -2.882  0.00  0.00     0.002 C 
ATOM     44  C   UNL d   1       2.916   1.101  -3.198  0.00  0.00     0.005 C 
ENDBRANCH  40  43
ENDBRANCH  39  40
ENDBRANCH  38  39
ENDBRANCH  36  38
ENDBRANCH  34  36
ENDBRANCH  33  34
ENDBRANCH  24  33
ENDBRANCH  23  24
ENDBRANCH  22  23
ENDBRANCH   5  22
BRANCH   6  45
ATOM     45  O   UNL d   1      -0.085   1.012  -1.530  0.00  0.00    -0.390 OA
ATOM     46  HO  UNL d   1      -0.041   1.888  -1.894  1.00  0.00     0.210 HD
ENDBRANCH   6  45
TORSDOF 16
