REMARK  4 active torsions:
REMARK  status: ('A' for Active; 'I' for Inactive)
REMARK    1  A    between atoms: C_1  and  C_2 
REMARK    2  A    between atoms: C_1  and  C_15 
REMARK    3  A    between atoms: C_17  and  C_18 
REMARK       I    between atoms: C_18  and  N_20 
REMARK       I    between atoms: N_23  and  C_24 
REMARK    4  A    between atoms: C_24  and  C_26 
ROOT
ATOM      1  C   UNL d   1      -1.776  -0.855  -0.582  0.00  0.00    -0.051 A 
ATOM      2  C   UNL d   1      -0.817  -1.036   0.419  0.00  0.00     0.027 A 
ATOM      3  C   UNL d   1       0.421  -0.382   0.349  0.00  0.00     0.071 A 
ATOM      4  C   UNL d   1       0.677   0.489  -0.729  0.00  0.00     0.132 A 
ATOM      5  F   UNL d   1       1.831   1.199  -0.797  0.00  0.00    -0.205 F 
ATOM      6  C   UNL d   1      -0.287   0.673  -1.724  0.00  0.00     0.044 A 
ATOM      7  C   UNL d   1      -1.509   0.001  -1.654  0.00  0.00     0.010 A 
ENDROOT
BRANCH   1   8
ATOM      8  C   UNL d   1      -3.094  -1.546  -0.488  0.00  0.00     0.098 C 
BRANCH   8   9
ATOM      9  C   UNL d   1      -4.062  -0.729   0.310  0.00  0.00     0.041 A 
ATOM     10  C   UNL d   1      -4.961   0.160  -0.301  0.00  0.00     0.004 A 
ATOM     11  C   UNL d   1      -5.828   0.920   0.514  0.00  0.00     0.045 A 
ATOM     12  C   UNL d   1      -5.019   0.307  -1.696  0.00  0.00     0.014 A 
ATOM     13  C   UNL d   1      -5.760   0.764   1.905  0.00  0.00     0.271 A 
ATOM     14  C   UNL d   1      -6.734   1.813  -0.077  0.00  0.00     0.018 A 
ATOM     15  O   UNL d   1      -6.516   1.421   2.669  0.00  0.00    -0.266 OA
ATOM     16  N   UNL d   1      -4.866  -0.110   2.435  0.00  0.00    -0.266 N 
ATOM     17  N   UNL d   1      -4.046  -0.828   1.666  0.00  0.00    -0.301 N 
ATOM     18  HN  UNL d   1      -4.820  -0.220   3.448  1.00  0.00     0.190 HD
ATOM     19  HN  UNL d   1      -3.387  -1.469   2.108  1.00  0.00     0.186 HD
ATOM     20  C   UNL d   1      -6.780   1.951  -1.466  0.00  0.00     0.001 A 
ATOM     21  C   UNL d   1      -5.924   1.199  -2.274  0.00  0.00     0.001 A 
ENDBRANCH   8   9
ENDBRANCH   1   8
BRANCH   3  22
ATOM     22  C   UNL d   1       1.406  -0.592   1.432  0.00  0.00     0.257 C 
ATOM     23  O   UNL d   1       0.991  -0.709   2.617  0.00  0.00    -0.267 OA
ATOM     24  N   UNL d   1       2.815  -0.682   1.164  0.00  0.00    -0.345 N 
ATOM     25  C   UNL d   1       3.765  -0.421   2.244  0.00  0.00     0.146 C 
ATOM     26  C   UNL d   1       3.287  -1.227  -0.115  0.00  0.00     0.146 C 
ATOM     27  C   UNL d   1       4.973   0.342   1.702  0.00  0.00     0.145 C 
ATOM     28  N   UNL d   1       5.462  -0.245   0.450  0.00  0.00    -0.349 N 
ATOM     29  C   UNL d   1       6.611   0.327  -0.198  0.00  0.00     0.224 C 
ATOM     30  C   UNL d   1       4.801  -1.423  -0.116  0.00  0.00     0.145 C 
ATOM     31  O   UNL d   1       7.117   1.393   0.251  0.00  0.00    -0.273 OA
BRANCH  29  32
ATOM     32  C   UNL d   1       7.190  -0.293  -1.437  0.00  0.00     0.078 A 
ATOM     33  C   UNL d   1       7.925  -1.570  -1.071  0.00  0.00     0.015 A 
ATOM     34  C   UNL d   1       8.708  -0.313  -1.370  0.00  0.00     0.015 A 
ENDBRANCH  29  32
ENDBRANCH   3  22
TORSDOF 4
