REMARK  0 active torsions:
REMARK  status: ('A' for Active; 'I' for Inactive)
REMARK       I    between atoms: C_1  and  N_4 
ROOT
ATOM      1  C   UNL d   1       0.451   2.368  -0.494  0.00  0.00     0.340 C 
ATOM      2  N   UNL d   1      -0.612   3.290  -0.719  0.00  0.00    -0.039 NA
ATOM      3  O   UNL d   1       1.634   2.737  -0.723  0.00  0.00    -0.250 OA
ATOM      4  N   UNL d   1       0.175   1.022  -0.052  0.00  0.00    -0.265 N 
ATOM      5  C   UNL d   1       1.249   0.110   0.270  0.00  0.00     0.058 A 
ATOM      6  C   UNL d   1       1.259  -1.254  -0.151  0.00  0.00     0.037 A 
ATOM      7  C   UNL d   1       0.216  -1.869  -1.018  0.00  0.00     0.166 C 
ATOM      8  O   UNL d   1       0.237  -3.112  -1.231  0.00  0.00    -0.292 OA
ATOM      9  C   UNL d   1      -0.862  -1.074  -1.675  0.00  0.00     0.125 C 
ATOM     10  C   UNL d   1      -1.716  -0.426  -0.644  0.00  0.00    -0.024 A 
ATOM     11  C   UNL d   1      -1.186   0.605   0.139  0.00  0.00     0.050 A 
ATOM     12  C   UNL d   1      -1.989   1.222   1.108  0.00  0.00     0.031 A 
ATOM     13  C   UNL d   1      -3.311   0.805   1.293  0.00  0.00     0.002 A 
ATOM     14  C   UNL d   1      -3.834  -0.229   0.512  0.00  0.00     0.001 A 
ATOM     15  C   UNL d   1      -3.037  -0.845  -0.457  0.00  0.00     0.010 A 
ATOM     16  C   UNL d   1       2.321  -2.079   0.256  0.00  0.00     0.017 A 
ATOM     17  C   UNL d   1       3.356  -1.589   1.052  0.00  0.00     0.001 A 
ATOM     18  C   UNL d   1       3.346  -0.259   1.460  0.00  0.00     0.002 A 
ATOM     19  C   UNL d   1       2.301   0.579   1.075  0.00  0.00     0.031 A 
ENDROOT
TORSDOF 0
