REMARK  10 active torsions:
REMARK  status: ('A' for Active; 'I' for Inactive)
REMARK    1  A    between atoms: O_2  and  C_3 
REMARK    2  A    between atoms: C_21  and  O_30 
REMARK    3  A    between atoms: C_22  and  O_28 
REMARK    4  A    between atoms: C_23  and  C_24 
REMARK    5  A    between atoms: C_24  and  O_26 
REMARK    6  A    between atoms: O_30  and  C_31 
REMARK    7  A    between atoms: C_31  and  C_33 
REMARK    8  A    between atoms: C_35  and  O_43 
REMARK    9  A    between atoms: C_36  and  O_41 
REMARK   10  A    between atoms: C_37  and  O_39 
ROOT
ATOM      1  C   UNL d   1      -9.007  -0.448   1.794  0.00  0.00     0.070 A 
ATOM      2  C   UNL d   1      -9.131  -1.279   0.657  0.00  0.00     0.038 A 
ATOM      3  C   UNL d   1      -7.996  -1.713  -0.051  0.00  0.00     0.017 A 
ATOM      4  C   UNL d   1      -6.755  -1.289   0.411  0.00  0.00    -0.001 A 
ATOM      5  C   UNL d   1      -6.616  -0.482   1.517  0.00  0.00     0.046 A 
ATOM      6  C   UNL d   1      -7.726  -0.043   2.235  0.00  0.00     0.067 A 
ATOM      7  N   UNL d   1      -5.322  -0.208   1.792  0.00  0.00    -0.357 N 
ATOM      8  HN  UNL d   1      -4.944   0.365   2.546  1.00  0.00     0.166 HD
ATOM      9  C   UNL d   1      -4.646  -0.876   0.826  0.00  0.00     0.050 A 
ATOM     10  C   UNL d   1      -5.488  -1.533  -0.047  0.00  0.00    -0.019 A 
ATOM     11  C   UNL d   1      -5.012  -2.412  -1.158  0.00  0.00     0.072 C 
ATOM     12  C   UNL d   1      -3.531  -2.114  -1.438  0.00  0.00     0.278 C 
ATOM     13  C   UNL d   1      -3.162  -0.879   0.637  0.00  0.00     0.273 C 
ATOM     14  C   UNL d   1      -2.715   0.448   0.009  0.00  0.00     0.048 C 
ATOM     15  C   UNL d   1      -1.250   0.432  -0.439  0.00  0.00     0.010 C 
ATOM     16  C   UNL d   1      -0.537  -0.868  -0.040  0.00  0.00     0.021 C 
ATOM     17  C   UNL d   1      -1.329  -2.079  -0.536  0.00  0.00     0.278 C 
ATOM     18  C   UNL d   1       0.890  -0.929  -0.592  0.00  0.00     0.042 C 
ATOM     19  C   UNL d   1       1.553   0.453  -0.682  0.00  0.00     0.162 C 
ATOM     20  C   UNL d   1       0.990   1.490   0.303  0.00  0.00     0.164 C 
ATOM     21  C   UNL d   1      -0.523   1.681   0.091  0.00  0.00     0.121 C 
ATOM     22  N   UNL d   1      -2.761  -2.053  -0.184  0.00  0.00     0.099 N 
ENDROOT
BRANCH  19  23
ATOM     23  O   UNL d   1       2.980   0.387  -0.678  0.00  0.00    -0.309 OA
BRANCH  23  24
ATOM     24  C   UNL d   1       3.752  -0.232   0.316  0.00  0.00     0.294 C 
ATOM     25  O   UNL d   1       3.201  -0.830   1.280  0.00  0.00    -0.259 OA
BRANCH  24  26
ATOM     26  C   UNL d   1       5.220  -0.196   0.217  0.00  0.00     0.045 A 
ATOM     27  C   UNL d   1       5.833   0.390  -0.890  0.00  0.00     0.057 A 
ATOM     28  C   UNL d   1       7.230   0.427  -1.004  0.00  0.00     0.105 A 
ATOM     29  C   UNL d   1       8.033  -0.125   0.008  0.00  0.00     0.135 A 
ATOM     30  C   UNL d   1       7.417  -0.714   1.143  0.00  0.00     0.105 A 
ATOM     31  C   UNL d   1       6.016  -0.742   1.228  0.00  0.00     0.057 A 
BRANCH  28  32
ATOM     32  O   UNL d   1       7.845   1.010  -2.118  0.00  0.00    -0.353 OA
ATOM     33  C   UNL d   1       7.111   1.597  -3.185  0.00  0.00     0.210 C 
ENDBRANCH  28  32
BRANCH  29  34
ATOM     34  O   UNL d   1       9.426  -0.060  -0.168  0.00  0.00    -0.351 OA
ATOM     35  C   UNL d   1      10.388  -0.571   0.743  0.00  0.00     0.210 C 
ENDBRANCH  29  34
BRANCH  30  36
ATOM     36  O   UNL d   1       8.191  -1.259   2.174  0.00  0.00    -0.353 OA
ATOM     37  C   UNL d   1       7.628  -1.843   3.342  0.00  0.00     0.210 C 
ENDBRANCH  30  36
ENDBRANCH  24  26
ENDBRANCH  23  24
ENDBRANCH  19  23
BRANCH  20  38
ATOM     38  O   UNL d   1       1.232   1.112   1.628  0.00  0.00    -0.387 OA
ATOM     39  C   UNL d   1       1.904   2.197   2.194  0.00  0.00     0.202 C 
ENDBRANCH  20  38
BRANCH  21  40
ATOM     40  C   UNL d   1      -0.771   2.849  -0.804  0.00  0.00     0.265 C 
ATOM     41  O   UNL d   1      -1.369   3.861  -0.347  0.00  0.00    -0.265 OA
BRANCH  40  42
ATOM     42  O   UNL d   1      -0.335   2.815  -2.130  0.00  0.00    -0.326 OA
ATOM     43  C   UNL d   1      -0.547   3.905  -3.015  0.00  0.00     0.213 C 
ENDBRANCH  40  42
ENDBRANCH  21  40
BRANCH   1  44
ATOM     44  O   UNL d   1     -10.168  -0.046   2.459  0.00  0.00    -0.356 OA
ATOM     45  C   UNL d   1     -10.143   0.768   3.624  0.00  0.00     0.210 C 
ENDBRANCH   1  44
TORSDOF 10
