REMARK  8 active torsions:
REMARK  status: ('A' for Active; 'I' for Inactive)
REMARK    1  A    between atoms: C_2  and  N_22 
REMARK    2  A    between atoms: C_5  and  C_6 
REMARK    3  A    between atoms: C_5  and  N_22 
REMARK    4  A    between atoms: C_6  and  C_7 
REMARK    5  A    between atoms: C_6  and  O_20 
REMARK    6  A    between atoms: C_7  and  O_8 
REMARK    7  A    between atoms: O_8  and  C_9 
REMARK    8  A    between atoms: C_14  and  C_15 
ROOT
ATOM      1  C   UNL d   1       0.498  -0.713  -0.539  0.00  0.00     0.209 C 
ENDROOT
BRANCH   1   2
ATOM      2  C   UNL d   1       1.507   0.353  -0.162  0.00  0.00     0.168 C 
BRANCH   2   3
ATOM      3  C   UNL d   1       2.906  -0.173  -0.414  0.00  0.00     0.267 C 
BRANCH   3   4
ATOM      4  N   UNL d   1       3.893   0.761   0.125  0.00  0.00    -0.065 N 
ATOM      5  HN2 UNL d   1       3.732   0.945   1.116  1.00  0.00     0.278 HD
ATOM      6  HN1 UNL d   1       3.751   1.705  -0.235  1.00  0.00     0.278 HD
BRANCH   4   7
ATOM      7  C   UNL d   1       5.262   0.294  -0.119  0.00  0.00     0.115 C 
ATOM      8  C   UNL d   1       6.225   1.306   0.464  0.00  0.00     0.045 C 
ATOM      9  C   UNL d   1       5.545   0.178  -1.610  0.00  0.00     0.045 C 
ATOM     10  C   UNL d   1       5.515  -1.044   0.561  0.00  0.00     0.045 C 
ENDBRANCH   4   7
ENDBRANCH   3   4
ENDBRANCH   2   3
BRANCH   2  11
ATOM     11  O   UNL d   1       1.289   1.499  -0.928  0.00  0.00    -0.392 OA
ATOM     12  HO  UNL d   1       0.412   1.828  -0.770  1.00  0.00     0.210 HD
ENDBRANCH   2  11
ENDBRANCH   1   2
BRANCH   1  13
ATOM     13  O   UNL d   1      -0.809  -0.281  -0.184  0.00  0.00    -0.348 OA
BRANCH  13  14
ATOM     14  C   UNL d   1      -1.954  -1.055  -0.405  0.00  0.00     0.075 A 
ATOM     15  C   UNL d   1      -3.222  -0.554  -0.037  0.00  0.00    -0.021 A 
ATOM     16  C   UNL d   1      -4.364  -1.332  -0.259  0.00  0.00     0.010 A 
ATOM     17  C   UNL d   1      -4.259  -2.597  -0.841  0.00  0.00     0.001 A 
ATOM     18  C   UNL d   1      -3.008  -3.096  -1.206  0.00  0.00     0.003 A 
ATOM     19  C   UNL d   1      -1.861  -2.329  -0.989  0.00  0.00     0.037 A 
BRANCH  15  20
ATOM     20  C   UNL d   1      -3.405   0.798   0.590  0.00  0.00     0.021 C 
ATOM     21  C   UNL d   1      -2.667   0.923   1.913  0.00  0.00     0.009 C 
ATOM     22  C   UNL d   1      -1.830   2.187   1.825  0.00  0.00     0.001 C 
ATOM     23  C   UNL d   1      -2.350   2.958   0.630  0.00  0.00     0.001 C 
ATOM     24  C   UNL d   1      -2.910   1.915  -0.308  0.00  0.00     0.009 C 
ENDBRANCH  15  20
ENDBRANCH  13  14
ENDBRANCH   1  13
TORSDOF 8
