REMARK  3 active torsions:
REMARK  status: ('A' for Active; 'I' for Inactive)
REMARK    1  A    between atoms: N_3  and  C_13 
REMARK    2  A    between atoms: C_13  and  C_14 
REMARK    3  A    between atoms: C_14  and  C_15 
ROOT
ATOM      1  C   UNL d   1      -2.220  -1.195   1.469  0.00  0.00     0.071 C 
ATOM      2  C   UNL d   1      -0.688  -1.140   1.440  0.00  0.00     0.275 C 
ATOM      3  N   UNL d   1      -0.228  -0.155   0.466  0.00  0.00     0.088 N 
ATOM      4  C   UNL d   1      -0.543   1.183   0.977  0.00  0.00     0.275 C 
ATOM      5  C   UNL d   1      -2.025   1.337   1.367  0.00  0.00     0.071 C 
ATOM      6  C   UNL d   1      -2.870   0.113   0.999  0.00  0.00     0.091 A 
ATOM      7  C   UNL d   1      -4.279   0.245   1.612  0.00  0.00     0.163 A 
ATOM      8  N   UNL d   1      -5.210   0.271   0.491  0.00  0.00    -0.334 N 
ATOM      9  HN  UNL d   1      -6.226   0.350   0.539  1.00  0.00     0.164 HD
ATOM     10  C   UNL d   1      -4.422   0.163  -0.672  0.00  0.00     0.361 A 
ATOM     11  O   UNL d   1      -4.904   0.153  -1.834  0.00  0.00    -0.238 OA
ATOM     12  O   UNL d   1      -3.077   0.071  -0.407  0.00  0.00    -0.291 OA
ENDROOT
BRANCH   3  13
ATOM     13  C   UNL d   1       1.220  -0.262   0.414  0.00  0.00     0.277 C 
BRANCH  13  14
ATOM     14  C   UNL d   1       1.709   0.052  -0.989  0.00  0.00     0.068 C 
BRANCH  14  15
ATOM     15  C   UNL d   1       3.194  -0.044  -1.046  0.00  0.00    -0.057 A 
ATOM     16  C   UNL d   1       3.980   1.080  -0.766  0.00  0.00     0.007 A 
ATOM     17  C   UNL d   1       5.374   0.985  -0.803  0.00  0.00     0.001 A 
ATOM     18  C   UNL d   1       5.985  -0.234  -1.116  0.00  0.00     0.000 A 
ATOM     19  C   UNL d   1       5.200  -1.359  -1.390  0.00  0.00     0.001 A 
ATOM     20  C   UNL d   1       3.806  -1.265  -1.353  0.00  0.00     0.007 A 
ENDBRANCH  14  15
ENDBRANCH  13  14
ENDBRANCH   3  13
TORSDOF 3
