REMARK  8 active torsions:
REMARK  status: ('A' for Active; 'I' for Inactive)
REMARK       I    between atoms: C_1  and  N_2 
REMARK    1  A    between atoms: C_16  and  C_1 
REMARK    2  A    between atoms: C_4  and  N_2 
REMARK    3  A    between atoms: C_4  and  C_5 
REMARK    4  A    between atoms: C_6  and  C_5 
REMARK       I    between atoms: N_23  and  C_24 
REMARK    5  A    between atoms: C_25  and  C_24 
REMARK    6  A    between atoms: C_25  and  N_26 
REMARK    7  A    between atoms: C_25  and  C_34 
REMARK       I    between atoms: N_26  and  C_28 
REMARK    8  A    between atoms: C_28  and  C_29 
ROOT
ATOM      1  C   UNL d   1       3.138   2.145   0.288  0.00  0.00     0.192 C 
ATOM      2  C   UNL d   1       3.752   3.078  -0.661  0.00  0.00     0.084 C 
ATOM      3  N   UNL d   1       4.236   3.814  -1.412  0.00  0.00    -0.195 NA
ENDROOT
BRANCH   1   4
ATOM      4  N   UNL d   1       2.571   1.013  -0.430  0.00  0.00    -0.342 N 
ATOM      5  C   UNL d   1       1.319   1.084  -1.114  0.00  0.00     0.242 C 
ATOM      6  O   UNL d   1       0.650   2.154  -1.115  0.00  0.00    -0.271 OA
ATOM      7  HN  UNL d   1       3.088   0.134  -0.446  1.00  0.00     0.163 HD
BRANCH   5   8
ATOM      8  C   UNL d   1       0.796  -0.135  -1.805  0.00  0.00     0.184 A 
ATOM      9  C   UNL d   1       0.568   0.162  -3.287  0.00  0.00     0.032 A 
ATOM     10  C   UNL d   1      -0.922  -0.085  -3.561  0.00  0.00     0.019 A 
ATOM     11  C   UNL d   1       0.131  -1.038  -4.119  0.00  0.00    -0.036 A 
ATOM     12  C   UNL d   1      -1.546  -0.535  -2.243  0.00  0.00     0.132 A 
ATOM     13  N   UNL d   1      -0.489  -0.528  -1.250  0.00  0.00    -0.336 N 
ATOM     14  C   UNL d   1      -0.634  -1.041   0.088  0.00  0.00     0.244 C 
ATOM     15  O   UNL d   1       0.376  -1.112   0.838  0.00  0.00    -0.271 OA
ATOM     16  C   UNL d   1       0.262  -2.441  -3.527  0.00  0.00     0.016 C 
ATOM     17  C   UNL d   1       0.380  -0.878  -5.603  0.00  0.00     0.016 C 
BRANCH  14  18
ATOM     18  C   UNL d   1      -1.956  -1.518   0.641  0.00  0.00     0.184 C 
BRANCH  18  19
ATOM     19  N   UNL d   1      -3.046  -0.627   0.256  0.00  0.00    -0.340 N 
ATOM     20  C   UNL d   1      -3.987  -0.115   1.201  0.00  0.00     0.326 C 
ATOM     21  O   UNL d   1      -3.863  -0.378   2.428  0.00  0.00    -0.263 OA
ATOM     22  HN  UNL d   1      -3.139  -0.360  -0.724  1.00  0.00     0.163 HD
BRANCH  20  23
ATOM     23  C   UNL d   1      -5.082   0.792   0.739  0.00  0.00     0.472 C 
ATOM     24  F   UNL d   1      -5.493   0.426  -0.530  0.00  0.00    -0.162 F 
ATOM     25  F   UNL d   1      -6.162   0.715   1.600  0.00  0.00    -0.162 F 
ATOM     26  F   UNL d   1      -4.616   2.093   0.709  0.00  0.00    -0.162 F 
ENDBRANCH  20  23
ENDBRANCH  18  19
BRANCH  18  27
ATOM     27  C   UNL d   1      -2.277  -3.004   0.366  0.00  0.00    -0.022 C 
ATOM     28  C   UNL d   1      -2.510  -3.269  -1.111  0.00  0.00     0.017 C 
ATOM     29  C   UNL d   1      -3.526  -3.411   1.126  0.00  0.00     0.017 C 
ATOM     30  C   UNL d   1      -1.142  -3.892   0.846  0.00  0.00     0.017 C 
ENDBRANCH  18  27
ENDBRANCH  14  18
ENDBRANCH   5   8
ENDBRANCH   1   4
BRANCH   1  31
ATOM     31  C   UNL d   1       4.194   1.657   1.266  0.00  0.00     0.054 C 
BRANCH  31  32
ATOM     32  C   UNL d   1       3.559   0.881   2.412  0.00  0.00     0.082 C 
ATOM     33  C   UNL d   1       4.611   0.244   3.227  0.00  0.00     0.222 C 
ATOM     34  O   UNL d   1       5.341  -0.696   2.817  0.00  0.00    -0.273 OA
ATOM     35  N   UNL d   1       4.721   0.771   4.530  0.00  0.00    -0.361 N 
ATOM     36  C   UNL d   1       3.742   1.829   4.687  0.00  0.00     0.123 C 
ATOM     37  HN  UNL d   1       5.379   0.459   5.245  1.00  0.00     0.162 HD
ATOM     38  C   UNL d   1       2.904   1.846   3.402  0.00  0.00     0.034 C 
ENDBRANCH  31  32
ENDBRANCH   1  31
TORSDOF 8
