REMARK  2 active torsions:
REMARK  status: ('A' for Active; 'I' for Inactive)
REMARK    1  A    between atoms: C_10  and  O_13 
REMARK    2  A    between atoms: C_19  and  O_23 
ROOT
ATOM      1  C   UNL d   1      -1.999   0.548   2.173  0.00  0.00     0.020 C 
ATOM      2  C   UNL d   1      -1.922   0.869   0.679  0.00  0.00     0.003 C 
ATOM      3  C   UNL d   1      -0.762   1.871   0.449  0.00  0.00     0.014 C 
ATOM      4  C   UNL d   1       0.632   1.301   0.767  0.00  0.00     0.006 C 
ATOM      5  C   UNL d   1       0.699  -0.225   0.621  0.00  0.00    -0.002 C 
ATOM      6  C   UNL d   1      -0.230  -0.690  -0.505  0.00  0.00    -0.005 C 
ATOM      7  C   UNL d   1      -1.695  -0.428  -0.132  0.00  0.00     0.002 C 
ATOM      8  C   UNL d   1      -2.533  -0.310  -1.400  0.00  0.00     0.010 C 
ATOM      9  C   UNL d   1      -3.265   1.022  -1.332  0.00  0.00     0.052 C 
ATOM     10  C   UNL d   1      -3.253   1.436   0.125  0.00  0.00     0.128 C 
ATOM     11  C   UNL d   1      -4.453   0.867   0.773  0.00  0.00    -0.078 C 
ATOM     12  C   UNL d   1      -5.433   0.404   1.301  0.00  0.00     0.015 C 
ATOM     13  C   UNL d   1       0.015  -2.155  -0.837  0.00  0.00     0.009 C 
ATOM     14  C   UNL d   1       1.388  -2.297  -1.489  0.00  0.00     0.034 C 
ATOM     15  C   UNL d   1       2.457  -1.540  -0.745  0.00  0.00    -0.077 C 
ATOM     16  C   UNL d   1       3.717  -1.612  -1.201  0.00  0.00     0.007 C 
ATOM     17  C   UNL d   1       4.867  -0.886  -0.554  0.00  0.00     0.141 C 
ATOM     18  C   UNL d   1       4.594  -0.588   0.919  0.00  0.00     0.036 C 
ATOM     19  C   UNL d   1       3.242   0.099   1.070  0.00  0.00     0.012 C 
ATOM     20  C   UNL d   1       2.128  -0.822   0.558  0.00  0.00     0.019 C 
ENDROOT
BRANCH  10  21
ATOM     21  O   UNL d   1      -3.308   2.830   0.223  0.00  0.00    -0.377 OA
ATOM     22  HO  UNL d   1      -4.124   3.178  -0.117  1.00  0.00     0.211 HD
ENDBRANCH  10  21
BRANCH  17  23
ATOM     23  O   UNL d   1       5.114   0.305  -1.240  0.00  0.00    -0.392 OA
ATOM     24  HO  UNL d   1       5.840   0.763  -0.832  1.00  0.00     0.210 HD
ENDBRANCH  17  23
TORSDOF 2
