REMARK  Name = fda_4066
REMARK  1 active torsions:
REMARK  status: ('A' for Active; 'I' for Inactive)
REMARK    1  A    between atoms: C_9  and  O_21
REMARK                            x       y       z     vdW  Elec       q    Type
REMARK                         _______ _______ _______ _____ _____    ______ ____
ROOT
ATOM      1  C   UNL A   1      -3.854  -2.110  -0.551  0.00  0.00    +0.090 C 
ATOM      2  C   UNL A   1      -2.256  -0.802  -1.712  0.00  0.00    +0.073 C 
ATOM      3  C   UNL A   1      -1.408   0.484  -1.732  0.00  0.00    +0.028 C 
ATOM      4  C   UNL A   1      -0.647   0.663  -0.406  0.00  0.00    +0.093 C 
ATOM      5  C   UNL A   1       0.315  -0.458  -0.244  0.00  0.00    +0.017 A 
ATOM      6  C   UNL A   1       0.028  -1.700   0.310  0.00  0.00    -0.021 A 
ATOM      7  C   UNL A   1       1.085  -2.612   0.461  0.00  0.00    -0.001 A 
ATOM      8  C   UNL A   1       2.397  -2.236   0.096  0.00  0.00    +0.040 A 
ATOM      9  C   UNL A   1       2.665  -0.925  -0.366  0.00  0.00    +0.172 A 
ATOM     10  C   UNL A   1       1.586  -0.048  -0.482  0.00  0.00    +0.169 A 
ATOM     11  O   UNL A   1       1.617   1.311  -0.722  0.00  0.00    -0.469 OA
ATOM     12  C   UNL A   1       0.321   1.882  -0.481  0.00  0.00    +0.228 C 
ATOM     13  C   UNL A   1       0.378   2.702   0.792  0.00  0.00    +0.191 C 
ATOM     14  O   UNL A   1       0.994   3.755   0.771  0.00  0.00    -0.292 OA
ATOM     15  C   UNL A   1      -0.289   2.298   2.088  0.00  0.00    +0.071 C 
ATOM     16  C   UNL A   1      -0.916   0.902   2.076  0.00  0.00    +0.040 C 
ATOM     17  C   UNL A   1      -1.651   0.642   0.763  0.00  0.00    +0.148 C 
ATOM     18  C   UNL A   1      -2.335  -0.752   0.726  0.00  0.00    +0.090 C 
ATOM     19  C   UNL A   1      -1.335  -1.946   0.907  0.00  0.00    +0.045 C 
ATOM     20  O   UNL A   1      -2.625   1.634   0.588  0.00  0.00    -0.224 OA
ATOM     21  N   UNL A   1      -3.120  -0.854  -0.525  0.00  0.00    -0.270 NA
ENDROOT
BRANCH   9  22
ATOM     22  O   UNL A   1       3.957  -0.491  -0.673  0.00  0.00    -0.468 OA
ATOM     23  C   UNL A   1       5.093  -1.336  -0.563  0.00  0.00    +0.253 C 
ENDBRANCH   9  22
TORSDOF 1
