REMARK  3 active torsions:
REMARK  status: ('A' for Active; 'I' for Inactive)
REMARK    1  A    between atoms: O_1  and  C_3 
REMARK    2  A    between atoms: C_9  and  O_10 
REMARK    3  A    between atoms: O_10  and  C_11 
ROOT
ATOM      1  C   UNL d   1      -2.415  -0.958   0.572  0.00  0.00     0.101 A 
ATOM      2  C   UNL d   1      -3.594  -0.411   0.054  0.00  0.00     0.063 A 
ATOM      3  C   UNL d   1      -3.560   0.802  -0.638  0.00  0.00     0.036 A 
ATOM      4 CL   UNL d   1      -5.037   1.483  -1.284  0.00  0.00    -0.084 Cl
ATOM      5  C   UNL d   1      -2.347   1.474  -0.812  0.00  0.00     0.027 A 
ATOM      6  C   UNL d   1      -1.168   0.930  -0.297  0.00  0.00     0.042 A 
ATOM      7  C   UNL d   1      -1.192  -0.294   0.394  0.00  0.00     0.109 A 
ENDROOT
BRANCH   7   8
ATOM      8  O   UNL d   1      -0.024  -0.854   0.931  0.00  0.00    -0.306 OA
BRANCH   8   9
ATOM      9  C   UNL d   1       1.269  -0.419   0.621  0.00  0.00     0.098 A 
ATOM     10  C   UNL d   1       2.095   0.025   1.660  0.00  0.00     0.041 A 
ATOM     11  C   UNL d   1       3.393   0.467   1.393  0.00  0.00     0.026 A 
ATOM     12  C   UNL d   1       3.877   0.460   0.083  0.00  0.00     0.035 A 
ATOM     13 CL   UNL d   1       5.502   1.015  -0.252  0.00  0.00    -0.084 Cl
ATOM     14  C   UNL d   1       3.070  -0.005  -0.958  0.00  0.00     0.050 A 
ATOM     15  C   UNL d   1       1.769  -0.448  -0.698  0.00  0.00     0.069 A 
ATOM     16 CL   UNL d   1       0.829  -1.103  -2.029  0.00  0.00    -0.081 Cl
ENDBRANCH   8   9
ENDBRANCH   7   8
BRANCH   1  17
ATOM     17  O   UNL d   1      -2.464  -2.163   1.260  0.00  0.00    -0.358 OA
ATOM     18  HO  UNL d   1      -1.664  -2.535   1.611  1.00  0.00     0.217 HD
ENDBRANCH   1  17
TORSDOF 3
