REMARK  8 active torsions:
REMARK  status: ('A' for Active; 'I' for Inactive)
REMARK    1  A    between atoms: C_2  and  C_3 
REMARK    2  A    between atoms: C_3  and  N_4 
REMARK    3  A    between atoms: N_4  and  C_5 
REMARK       I    between atoms: N_4  and  C_8 
REMARK    4  A    between atoms: C_5  and  C_6 
REMARK    5  A    between atoms: C_8  and  O_10 
REMARK    6  A    between atoms: O_10  and  C_11 
REMARK    7  A    between atoms: C_22  and  O_26 
REMARK    8  A    between atoms: O_26  and  P_27 
ROOT
ATOM      1  C   UNL d   1       2.576  -0.192   1.408  0.00  0.00     0.081 A 
ATOM      2  C   UNL d   1       1.847  -1.326   1.039  0.00  0.00     0.045 A 
ATOM      3  C   UNL d   1       0.525  -1.218   0.595  0.00  0.00    -0.049 A 
ATOM      4  C   UNL d   1      -0.191  -2.474   0.171  0.00  0.00     0.039 C 
ATOM      5  C   UNL d   1      -1.707  -2.294   0.110  0.00  0.00     0.010 C 
ATOM      6  C   UNL d   1      -2.024  -1.043  -0.696  0.00  0.00    -0.001 C 
ATOM      7  C   UNL d   1      -1.529   0.187   0.088  0.00  0.00     0.023 C 
ATOM      8  C   UNL d   1      -1.859   1.500  -0.654  0.00  0.00     0.010 C 
ATOM      9  C   UNL d   1      -3.363   1.602  -0.980  0.00  0.00     0.013 C 
ATOM     10  C   UNL d   1      -3.819   0.363  -1.752  0.00  0.00    -0.013 C 
ATOM     11  C   UNL d   1      -3.120   0.306  -3.117  0.00  0.00     0.018 C 
ATOM     12  C   UNL d   1      -5.325   0.232  -1.908  0.00  0.00     0.144 C 
ATOM     13  C   UNL d   1      -5.640  -1.283  -1.920  0.00  0.00     0.034 C 
ATOM     14  C   UNL d   1      -4.352  -1.982  -1.482  0.00  0.00     0.008 C 
ATOM     15  C   UNL d   1      -3.520  -0.856  -0.903  0.00  0.00     0.001 C 
ATOM     16  C   UNL d   1      -0.073   0.059   0.474  0.00  0.00    -0.047 A 
ATOM     17  C   UNL d   1       0.652   1.192   0.869  0.00  0.00     0.011 A 
ATOM     18  C   UNL d   1       1.967   1.069   1.323  0.00  0.00     0.038 A 
ENDROOT
BRANCH   1  19
ATOM     19  O   UNL d   1       3.893  -0.368   1.859  0.00  0.00    -0.261 OA
BRANCH  19  20
ATOM     20  C   UNL d   1       4.783   0.644   2.253  0.00  0.00     0.368 C 
ATOM     21  N   UNL d   1       6.087   0.287   2.739  0.00  0.00    -0.326 N 
ATOM     22  O   UNL d   1       4.455   1.861   2.181  0.00  0.00    -0.238 OA
BRANCH  21  23
ATOM     23  C   UNL d   1       6.467  -1.113   2.900  0.00  0.00     0.143 C 
BRANCH  23  24
ATOM     24  C   UNL d   1       5.690  -1.759   4.038  0.00  0.00     0.134 C 
ATOM     25 CL   UNL d   1       6.228  -1.110   5.607  0.00  0.00    -0.129 Cl
ENDBRANCH  23  24
ENDBRANCH  21  23
BRANCH  21  26
ATOM     26  C   UNL d   1       7.067   1.308   3.082  0.00  0.00     0.143 C 
BRANCH  26  27
ATOM     27  C   UNL d   1       7.637   1.936   1.824  0.00  0.00     0.134 C 
ATOM     28 CL   UNL d   1       8.821   3.183   2.273  0.00  0.00    -0.129 Cl
ENDBRANCH  26  27
ENDBRANCH  21  26
ENDBRANCH  19  20
ENDBRANCH   1  19
BRANCH  12  29
ATOM     29  O   UNL d   1      -5.890   1.096  -2.888  0.00  0.00    -0.277 OA
BRANCH  29  30
ATOM     30  P   UNL d   1      -6.436   0.275  -4.288  0.00  0.00     0.422 P 
ATOM     31  O   UNL d   1      -5.252  -0.779  -4.883  0.00  0.00    -0.617 OA
ATOM     32  O   UNL d   1      -7.838  -0.600  -3.926  0.00  0.00    -0.617 OA
ATOM     33  O   UNL d   1      -6.760   1.295  -5.356  0.00  0.00    -0.617 OA
ENDBRANCH  29  30
ENDBRANCH  12  29
TORSDOF 8
