REMARK  9 active torsions:
REMARK  status: ('A' for Active; 'I' for Inactive)
REMARK    1  A    between atoms: C_2  and  C_3 
REMARK    2  A    between atoms: C_3  and  C_4 
REMARK    3  A    between atoms: C_4  and  C_5 
REMARK    4  A    between atoms: C_5  and  O_7 
REMARK    5  A    between atoms: O_7  and  C_8 
REMARK    6  A    between atoms: C_8  and  C_9 
REMARK    7  A    between atoms: C_9  and  C_11 
REMARK    8  A    between atoms: C_11  and  O_35 
REMARK    9  A    between atoms: C_17  and  O_31 
ROOT
ATOM      1  C   UNL d   1       1.595   0.435  -1.809  0.00  0.00     0.131 C 
ATOM      2  C   UNL d   1       1.673   1.759  -1.017  0.00  0.00     0.025 C 
ATOM      3  C   UNL d   1       0.293   2.399  -1.133  0.00  0.00     0.013 C 
ATOM      4  C   UNL d   1      -0.625   1.345  -1.739  0.00  0.00     0.005 C 
ATOM      5  C   UNL d   1       0.114   0.001  -1.660  0.00  0.00     0.001 C 
ATOM      6  C   UNL d   1      -0.124  -0.732  -0.308  0.00  0.00     0.048 C 
ATOM      7  C   UNL d   1      -1.574  -0.713   0.203  0.00  0.00     0.160 C 
ATOM      8  C   UNL d   1      -2.097   0.732   0.304  0.00  0.00     0.147 C 
ATOM      9  C   UNL d   1      -2.025   1.298  -1.127  0.00  0.00     0.035 C 
ATOM     10  C   UNL d   1      -2.916   2.504  -1.361  0.00  0.00     0.013 C 
ATOM     11  C   UNL d   1      -4.368   2.025  -1.307  0.00  0.00     0.036 C 
ATOM     12  C   UNL d   1      -4.606   1.037  -0.191  0.00  0.00    -0.061 C 
ATOM     13  C   UNL d   1      -5.771   0.384  -0.174  0.00  0.00     0.058 C 
ATOM     14  C   UNL d   1      -6.062  -0.607   0.865  0.00  0.00     0.172 C 
ATOM     15  O   UNL d   1      -7.183  -1.177   0.899  0.00  0.00    -0.289 OA
ATOM     16  C   UNL d   1      -5.027  -0.956   1.839  0.00  0.00     0.052 C 
ATOM     17  C   UNL d   1      -3.864  -0.303   1.846  0.00  0.00    -0.006 C 
ATOM     18  C   UNL d   1      -3.554   0.855   0.912  0.00  0.00     0.036 C 
ATOM     19  C   UNL d   1      -3.650   2.109   1.780  0.00  0.00     0.028 C 
ATOM     20  F   UNL d   1      -1.210   1.430   1.116  0.00  0.00    -0.238 F 
ATOM     21  C   UNL d   1      -0.332  -0.903  -2.806  0.00  0.00     0.019 C 
ATOM     22  C   UNL d   1       1.979   1.576   0.465  0.00  0.00     0.013 C 
ENDROOT
BRANCH   1  23
ATOM     23  C   UNL d   1       2.619  -0.614  -1.392  0.00  0.00     0.186 C 
ATOM     24  O   UNL d   1       2.344  -1.803  -1.473  0.00  0.00    -0.292 OA
BRANCH  23  25
ATOM     25  C   UNL d   1       4.035  -0.209  -1.088  0.00  0.00     0.260 C 
BRANCH  25  26
ATOM     26  O   UNL d   1       4.727  -1.227  -0.369  0.00  0.00    -0.314 OA
BRANCH  26  27
ATOM     27  C   UNL d   1       4.501  -1.482   0.986  0.00  0.00     0.259 C 
ATOM     28  O   UNL d   1       3.686  -0.787   1.650  0.00  0.00    -0.265 OA
BRANCH  27  29
ATOM     29  C   UNL d   1       5.260  -2.567   1.663  0.00  0.00     0.111 C 
BRANCH  29  30
ATOM     30  C   UNL d   1       6.606  -2.043   2.121  0.00  0.00     0.009 C 
BRANCH  30  31
ATOM     31  C   UNL d   1       7.372  -3.153   2.808  0.00  0.00    -0.004 C 
ATOM     32  C   UNL d   1       8.717  -2.629   3.265  0.00  0.00     0.005 C 
ENDBRANCH  30  31
ENDBRANCH  29  30
ENDBRANCH  27  29
ENDBRANCH  26  27
ENDBRANCH  25  26
ENDBRANCH  23  25
ENDBRANCH   1  23
BRANCH   1  33
ATOM     33  O   UNL d   1       1.855   0.748  -3.150  0.00  0.00    -0.381 OA
ATOM     34  HO  UNL d   1       1.217   1.403  -3.409  1.00  0.00     0.211 HD
ENDBRANCH   1  33
BRANCH   7  35
ATOM     35  O   UNL d   1      -2.392  -1.497  -0.618  0.00  0.00    -0.392 OA
ATOM     36  HO  UNL d   1      -3.288  -1.486  -0.302  1.00  0.00     0.210 HD
ENDBRANCH   7  35
TORSDOF 9
