REMARK  6 active torsions:
REMARK  status: ('A' for Active; 'I' for Inactive)
REMARK    1  A    between atoms: O_1  and  C_3 
REMARK    2  A    between atoms: C_6  and  N_12 
REMARK    3  A    between atoms: C_8  and  C_9 
REMARK    4  A    between atoms: N_14  and  C_16 
REMARK    5  A    between atoms: C_19  and  O_20 
REMARK    6  A    between atoms: C_22  and  C_24 
ROOT
ATOM      1  N   UNL d   1      -0.486   0.235  -0.583  0.00  0.00    -0.300 N 
ATOM      2  HN  UNL d   1      -0.289   0.791  -1.416  1.00  0.00     0.187 HD
ATOM      3  N   UNL d   1       0.486  -0.235   0.092  0.00  0.00    -0.300 N 
ATOM      4  HN  UNL d   1       0.289  -0.791   0.925  1.00  0.00     0.187 HD
ENDROOT
BRANCH   1   5
ATOM      5  C   UNL d   1      -1.845   0.005  -0.204  0.00  0.00     0.049 A 
ATOM      6  C   UNL d   1      -2.166  -0.750   0.930  0.00  0.00     0.034 A 
ATOM      7  C   UNL d   1      -3.501  -0.960   1.278  0.00  0.00     0.040 A 
ATOM      8  C   UNL d   1      -4.529  -0.419   0.499  0.00  0.00     0.082 A 
ATOM      9  C   UNL d   1      -4.219   0.345  -0.648  0.00  0.00     0.076 A 
ATOM     10  C   UNL d   1      -2.871   0.546  -0.983  0.00  0.00     0.052 A 
BRANCH   8  11
ATOM     11  O   UNL d   1      -5.845  -0.651   0.880  0.00  0.00    -0.360 OA
ATOM     12  HO  UNL d   1      -6.543  -0.284   0.351  1.00  0.00     0.217 HD
ENDBRANCH   8  11
BRANCH   9  13
ATOM     13  C   UNL d   1      -5.266   0.942  -1.508  0.00  0.00     0.212 C 
ATOM     14  O   UNL d   1      -6.614   0.772  -1.220  0.00  0.00    -0.644 OA
ATOM     15  O   UNL d   1      -4.941   1.616  -2.522  0.00  0.00    -0.644 OA
ENDBRANCH   9  13
ENDBRANCH   1   5
BRANCH   3  16
ATOM     16  C   UNL d   1       1.845  -0.005  -0.286  0.00  0.00     0.049 A 
ATOM     17  C   UNL d   1       2.166   0.750  -1.421  0.00  0.00     0.034 A 
ATOM     18  C   UNL d   1       3.501   0.960  -1.768  0.00  0.00     0.040 A 
ATOM     19  C   UNL d   1       4.529   0.419  -0.990  0.00  0.00     0.082 A 
ATOM     20  C   UNL d   1       4.219  -0.345   0.157  0.00  0.00     0.076 A 
ATOM     21  C   UNL d   1       2.871  -0.546   0.493  0.00  0.00     0.052 A 
BRANCH  19  22
ATOM     22  O   UNL d   1       5.845   0.651  -1.371  0.00  0.00    -0.360 OA
ATOM     23  HO  UNL d   1       6.543   0.284  -0.842  1.00  0.00     0.217 HD
ENDBRANCH  19  22
BRANCH  20  24
ATOM     24  C   UNL d   1       5.266  -0.942   1.018  0.00  0.00     0.212 C 
ATOM     25  O   UNL d   1       6.614  -0.772   0.729  0.00  0.00    -0.644 OA
ATOM     26  O   UNL d   1       4.941  -1.616   2.031  0.00  0.00    -0.644 OA
ENDBRANCH  20  24
ENDBRANCH   3  16
TORSDOF 6
