REMARK  5 active torsions:
REMARK  status: ('A' for Active; 'I' for Inactive)
REMARK    1  A    between atoms: O_2  and  C_3 
REMARK    2  A    between atoms: C_5  and  C_6 
REMARK    3  A    between atoms: C_6  and  C_7 
REMARK    4  A    between atoms: C_7  and  C_8 
REMARK    5  A    between atoms: C_13  and  O_14 
ROOT
ATOM      1  C   UNL d   1      -2.018   0.603  -0.130  0.00  0.00     0.101 A 
ATOM      2  C   UNL d   1      -0.674   0.755   0.249  0.00  0.00     0.046 A 
ATOM      3  C   UNL d   1       0.070  -0.349   0.675  0.00  0.00    -0.055 A 
ATOM      4  C   UNL d   1      -0.522  -1.615   0.715  0.00  0.00     0.010 A 
ATOM      5  C   UNL d   1      -1.858  -1.774   0.339  0.00  0.00     0.040 A 
ATOM      6  C   UNL d   1      -2.606  -0.670  -0.082  0.00  0.00     0.099 A 
ENDROOT
BRANCH   3   7
ATOM      7  C   UNL d   1       1.499  -0.182   1.059  0.00  0.00     0.049 C 
BRANCH   7   8
ATOM      8  C   UNL d   1       2.390  -0.354  -0.158  0.00  0.00     0.117 C 
BRANCH   8   9
ATOM      9  C   UNL d   1       3.815  -0.183   0.232  0.00  0.00     0.172 C 
ATOM     10  O   UNL d   1       4.375   1.087   0.281  0.00  0.00    -0.648 OA
ATOM     11  O   UNL d   1       4.506  -1.186   0.549  0.00  0.00    -0.648 OA
ENDBRANCH   8   9
ENDBRANCH   7   8
ENDBRANCH   3   7
BRANCH   1  12
ATOM     12  O   UNL d   1      -2.782   1.695  -0.557  0.00  0.00    -0.353 OA
ATOM     13  C   UNL d   1      -2.260   3.015  -0.635  0.00  0.00     0.210 C 
ENDBRANCH   1  12
BRANCH   6  14
ATOM     14  O   UNL d   1      -3.934  -0.843  -0.452  0.00  0.00    -0.358 OA
ATOM     15  HO  UNL d   1      -4.442  -0.093  -0.738  1.00  0.00     0.217 HD
ENDBRANCH   6  14
TORSDOF 5
