REMARK  5 active torsions:
REMARK  status: ('A' for Active; 'I' for Inactive)
REMARK    1  A    between atoms: C_2  and  N_4 
REMARK    2  A    between atoms: N_4  and  C_7 
REMARK    3  A    between atoms: C_7  and  C_8 
REMARK    4  A    between atoms: C_8  and  O_9 
REMARK    5  A    between atoms: C_8  and  C_11 
ROOT
ATOM      1  C   UNL d   1       0.114   0.649  -0.501  0.00  0.00     0.178 C 
ENDROOT
BRANCH   1   2
ATOM      2  C   UNL d   1       1.222  -0.286  -0.047  0.00  0.00     0.269 C 
BRANCH   2   3
ATOM      3  N   UNL d   1       2.515   0.348  -0.241  0.00  0.00    -0.069 N 
ATOM      4  HN2 UNL d   1       2.581   1.265   0.200  1.00  0.00     0.277 HD
ATOM      5  HN1 UNL d   1       2.670   0.654  -1.202  1.00  0.00     0.277 HD
BRANCH   3   6
ATOM      6  C   UNL d   1       3.525  -0.585   0.229  0.00  0.00     0.178 C 
ATOM      7  C   UNL d   1       3.936  -0.224   1.643  0.00  0.00     0.039 C 
ATOM      8  C   UNL d   1       4.737  -0.512  -0.676  0.00  0.00     0.039 C 
ENDBRANCH   3   6
ENDBRANCH   2   3
ENDBRANCH   1   2
BRANCH   1   9
ATOM      9  O   UNL d   1       0.165   0.823  -1.886  0.00  0.00    -0.389 OA
ATOM     10  HO  UNL d   1      -0.528   1.408  -2.169  1.00  0.00     0.210 HD
ENDBRANCH   1   9
BRANCH   1  11
ATOM     11  C   UNL d   1      -1.226   0.118  -0.089  0.00  0.00    -0.006 A 
ATOM     12  C   UNL d   1      -1.748  -1.026  -0.712  0.00  0.00     0.011 A 
ATOM     13  C   UNL d   1      -2.990  -1.537  -0.327  0.00  0.00     0.001 A 
ATOM     14  C   UNL d   1      -3.719  -0.910   0.685  0.00  0.00     0.002 A 
ATOM     15  C   UNL d   1      -3.206   0.227   1.314  0.00  0.00     0.024 A 
ATOM     16  C   UNL d   1      -1.963   0.744   0.934  0.00  0.00     0.043 A 
ATOM     17 CL   UNL d   1      -1.360   2.173   1.760  0.00  0.00    -0.084 Cl
ENDBRANCH   1  11
TORSDOF 5
