REMARK  5 active torsions:
REMARK  status: ('A' for Active; 'I' for Inactive)
REMARK    1  A    between atoms: C_2  and  C_3 
REMARK    2  A    between atoms: C_4  and  C_5 
REMARK    3  A    between atoms: C_5  and  C_7 
REMARK    4  A    between atoms: C_7  and  C_18 
REMARK    5  A    between atoms: C_18  and  C_19 
ROOT
ATOM      1  C   UNL d   1      -0.439   0.923   0.043  0.00  0.00     0.139 C 
ATOM      2  C   UNL d   1       0.374   1.122   1.317  0.00  0.00     0.245 C 
ATOM      3  O   UNL d   1       1.054   2.172   1.473  0.00  0.00    -0.272 OA
ATOM      4  N   UNL d   1       0.464   0.105   2.313  0.00  0.00    -0.278 N 
ATOM      5  HN  UNL d   1       1.082   0.245   3.111  1.00  0.00     0.173 HD
ATOM      6  C   UNL d   1      -0.285  -1.100   2.222  0.00  0.00     0.331 C 
ATOM      7  O   UNL d   1      -0.122  -1.998   3.091  0.00  0.00    -0.246 OA
ATOM      8  N   UNL d   1      -1.225  -1.277   1.160  0.00  0.00    -0.273 N 
ATOM      9  C   UNL d   1      -1.406  -0.252   0.170  0.00  0.00     0.247 C 
ATOM     10  O   UNL d   1      -2.355  -0.358  -0.658  0.00  0.00    -0.271 OA
ATOM     11  C   UNL d   1      -2.035  -2.487   1.108  0.00  0.00     0.164 C 
ENDROOT
BRANCH   1  12
ATOM     12  C   UNL d   1       0.539   0.674  -1.143  0.00  0.00     0.088 C 
ATOM     13  C   UNL d   1      -0.151   0.614  -2.499  0.00  0.00     0.025 C 
BRANCH  12  14
ATOM     14  C   UNL d   1       1.363  -0.533  -0.960  0.00  0.00    -0.100 C 
ATOM     15  C   UNL d   1       2.029  -1.524  -0.798  0.00  0.00    -0.106 C 
BRANCH  15  16
ATOM     16  C   UNL d   1       2.832  -2.729  -0.594  0.00  0.00     0.089 C 
ATOM     17  C   UNL d   1       2.307  -3.489   0.607  0.00  0.00     0.018 C 
ENDBRANCH  15  16
ENDBRANCH  12  14
ENDBRANCH   1  12
BRANCH   1  18
ATOM     18  C   UNL d   1      -1.296   2.188  -0.201  0.00  0.00     0.057 C 
BRANCH  18  19
ATOM     19  C   UNL d   1      -0.511   3.400  -0.605  0.00  0.00    -0.035 C 
ATOM     20  C   UNL d   1      -1.137   4.547  -0.842  0.00  0.00     0.007 C 
ENDBRANCH  18  19
ENDBRANCH   1  18
TORSDOF 5
