REMARK  6 active torsions:
REMARK  status: ('A' for Active; 'I' for Inactive)
REMARK    1  A    between atoms: C_1  and  C_2 
REMARK    2  A    between atoms: C_1  and  C_13 
REMARK    3  A    between atoms: C_3  and  C_4 
REMARK    4  A    between atoms: C_7  and  O_8 
REMARK    5  A    between atoms: C_14  and  O_15 
REMARK    6  A    between atoms: C_18  and  O_19 
ROOT
ATOM      1  C   UNL d   1       0.852   1.724   0.100  0.00  0.00     0.184 C 
ATOM      2  O   UNL d   1       1.018   2.970   0.191  0.00  0.00    -0.287 OA
ENDROOT
BRANCH   1   3
ATOM      3  C   UNL d   1      -0.549   1.262  -0.005  0.00  0.00     0.056 C 
ATOM      4  C   UNL d   1      -0.931  -0.008  -0.110  0.00  0.00     0.015 C 
BRANCH   4   5
ATOM      5  C   UNL d   1      -2.341  -0.409  -0.211  0.00  0.00    -0.036 A 
ATOM      6  C   UNL d   1      -3.380   0.536  -0.204  0.00  0.00     0.014 A 
ATOM      7  C   UNL d   1      -4.711   0.119  -0.302  0.00  0.00     0.037 A 
ATOM      8  C   UNL d   1      -5.010  -1.242  -0.408  0.00  0.00     0.065 A 
ATOM      9  C   UNL d   1      -3.979  -2.186  -0.416  0.00  0.00     0.037 A 
ATOM     10  C   UNL d   1      -2.648  -1.769  -0.318  0.00  0.00     0.014 A 
BRANCH   8  11
ATOM     11  O   UNL d   1      -6.331  -1.656  -0.506  0.00  0.00    -0.361 OA
ATOM     12  HO  UNL d   1      -6.535  -2.582  -0.578  1.00  0.00     0.217 HD
ENDBRANCH   8  11
ENDBRANCH   4   5
ENDBRANCH   1   3
BRANCH   1  13
ATOM     13  C   UNL d   1       2.048   0.823   0.103  0.00  0.00     0.047 A 
ATOM     14  C   UNL d   1       3.366   1.336   0.207  0.00  0.00     0.082 A 
ATOM     15  C   UNL d   1       4.463   0.469   0.207  0.00  0.00     0.074 A 
ATOM     16  C   UNL d   1       4.277  -0.909   0.106  0.00  0.00     0.068 A 
ATOM     17  C   UNL d   1       2.989  -1.430   0.003  0.00  0.00     0.037 A 
ATOM     18  C   UNL d   1       1.889  -0.570   0.002  0.00  0.00     0.021 A 
BRANCH  14  19
ATOM     19  O   UNL d   1       3.607   2.701   0.311  0.00  0.00    -0.360 OA
ATOM     20  HO  UNL d   1       4.490   3.045   0.380  1.00  0.00     0.217 HD
ENDBRANCH  14  19
BRANCH  16  21
ATOM     21  O   UNL d   1       5.373  -1.761   0.107  0.00  0.00    -0.361 OA
ATOM     22  HO  UNL d   1       5.246  -2.700   0.038  1.00  0.00     0.217 HD
ENDBRANCH  16  21
ENDBRANCH   1  13
TORSDOF 6
