REMARK  2 active torsions:
REMARK  status: ('A' for Active; 'I' for Inactive)
REMARK    1  A    between atoms: C_9  and  O_23 
REMARK    2  A    between atoms: C_18  and  O_21 
ROOT
ATOM      1  C   UNL d   1      -2.001   0.989   1.681  0.00  0.00     0.020 C 
ATOM      2  C   UNL d   1      -1.941   1.077   0.156  0.00  0.00     0.003 C 
ATOM      3  C   UNL d   1      -0.778   2.007  -0.248  0.00  0.00     0.014 C 
ATOM      4  C   UNL d   1       0.583   1.375   0.003  0.00  0.00     0.010 C 
ATOM      5  C   UNL d   1       0.719   0.108  -0.835  0.00  0.00     0.023 C 
ATOM      6  C   UNL d   1       2.102  -0.465  -0.678  0.00  0.00    -0.047 A 
ATOM      7  C   UNL d   1       3.173   0.167  -1.323  0.00  0.00     0.011 A 
ATOM      8  C   UNL d   1       4.477  -0.304  -1.154  0.00  0.00     0.037 A 
ATOM      9  C   UNL d   1       4.721  -1.409  -0.335  0.00  0.00     0.066 A 
ATOM     10  C   UNL d   1       3.661  -2.047   0.313  0.00  0.00     0.044 A 
ATOM     11  C   UNL d   1       2.353  -1.577   0.160  0.00  0.00    -0.049 A 
ATOM     12  C   UNL d   1       1.235  -2.354   0.798  0.00  0.00     0.039 C 
ATOM     13  C   UNL d   1      -0.058  -1.550   0.894  0.00  0.00     0.010 C 
ATOM     14  C   UNL d   1      -0.368  -0.912  -0.455  0.00  0.00    -0.001 C 
ATOM     15  C   UNL d   1      -1.783  -0.315  -0.469  0.00  0.00     0.002 C 
ATOM     16  C   UNL d   1      -2.344  -0.210  -1.878  0.00  0.00     0.010 C 
ATOM     17  C   UNL d   1      -3.269   1.002  -1.883  0.00  0.00     0.052 C 
ATOM     18  C   UNL d   1      -3.264   1.576  -0.472  0.00  0.00     0.128 C 
ATOM     19  C   UNL d   1      -4.465   1.077   0.227  0.00  0.00    -0.078 C 
ATOM     20  C   UNL d   1      -5.447   0.669   0.797  0.00  0.00     0.015 C 
ENDROOT
BRANCH  18  21
ATOM     21  O   UNL d   1      -3.322   2.972  -0.525  0.00  0.00    -0.377 OA
ATOM     22  HO  UNL d   1      -4.135   3.279  -0.911  1.00  0.00     0.211 HD
ENDBRANCH  18  21
BRANCH   9  23
ATOM     23  O   UNL d   1       6.018  -1.876  -0.170  0.00  0.00    -0.361 OA
ATOM     24  HO  UNL d   1       6.183  -2.628   0.387  1.00  0.00     0.217 HD
ENDBRANCH   9  23
TORSDOF 2
