REMARK  4 active torsions:
REMARK  status: ('A' for Active; 'I' for Inactive)
REMARK    1  A    between atoms: C_7  and  O_46 
REMARK    2  A    between atoms: C_24  and  O_28 
REMARK    3  A    between atoms: C_25  and  O_26 
REMARK    4  A    between atoms: C_38  and  O_42 
ROOT
ATOM      1  C   UNL d   1      -4.809  -4.152   0.235  0.00  0.00     0.272 C 
ATOM      2  N   UNL d   1      -5.064  -2.720   0.327  0.00  0.00    -0.066 N 
ATOM      3  C   UNL d   1      -5.657  -2.446   1.643  0.00  0.00     0.242 C 
ATOM      4  C   UNL d   1      -6.070  -0.976   1.806  0.00  0.00     0.067 C 
ATOM      5  C   UNL d   1      -5.045  -0.027   1.259  0.00  0.00    -0.045 A 
ATOM      6  C   UNL d   1      -5.190   1.339   1.514  0.00  0.00     0.047 A 
ATOM      7  C   UNL d   1      -4.294   2.272   0.966  0.00  0.00     0.102 A 
ATOM      8  C   UNL d   1      -3.245   1.826   0.148  0.00  0.00     0.110 A 
ATOM      9  C   UNL d   1      -3.119   0.457  -0.127  0.00  0.00     0.050 A 
ATOM     10  C   UNL d   1      -4.013  -0.471   0.412  0.00  0.00    -0.018 A 
ATOM     11  C   UNL d   1      -3.818  -1.944   0.124  0.00  0.00     0.227 C 
ATOM     12  C   UNL d   1      -2.629  -2.493   0.942  0.00  0.00     0.077 C 
ATOM     13  C   UNL d   1      -1.297  -2.104   0.372  0.00  0.00    -0.056 A 
ATOM     14  C   UNL d   1      -0.214  -1.909   1.235  0.00  0.00     0.010 A 
ATOM     15  C   UNL d   1       1.045  -1.577   0.722  0.00  0.00     0.038 A 
ATOM     16  C   UNL d   1       1.227  -1.428  -0.663  0.00  0.00     0.076 A 
ATOM     17  C   UNL d   1       0.148  -1.653  -1.522  0.00  0.00     0.038 A 
ATOM     18  C   UNL d   1      -1.103  -1.999  -1.012  0.00  0.00     0.010 A 
ATOM     19  O   UNL d   1       2.464  -1.091  -1.228  0.00  0.00    -0.307 OA
ATOM     20  C   UNL d   1       3.658  -0.885  -0.521  0.00  0.00     0.121 A 
ATOM     21  C   UNL d   1       3.761   0.141   0.451  0.00  0.00     0.016 A 
ATOM     22  C   UNL d   1       4.987   0.350   1.114  0.00  0.00    -0.043 A 
ATOM     23  C   UNL d   1       6.084  -0.450   0.817  0.00  0.00     0.047 A 
ATOM     24  C   UNL d   1       6.002  -1.451  -0.155  0.00  0.00     0.104 A 
ATOM     25  C   UNL d   1       4.795  -1.676  -0.831  0.00  0.00     0.136 A 
ATOM     26  C   UNL d   1       5.130   1.344   2.228  0.00  0.00     0.067 C 
ATOM     27  C   UNL d   1       3.963   2.334   2.299  0.00  0.00     0.242 C 
ATOM     28  N   UNL d   1       2.667   1.686   2.067  0.00  0.00    -0.066 N 
ATOM     29  C   UNL d   1       2.606   1.089   0.711  0.00  0.00     0.230 C 
ATOM     30  C   UNL d   1       2.549   2.145  -0.407  0.00  0.00     0.077 C 
ATOM     31  C   UNL d   1       1.232   2.091  -1.107  0.00  0.00    -0.053 A 
ATOM     32  C   UNL d   1       1.152   1.609  -2.416  0.00  0.00     0.010 A 
ATOM     33  C   UNL d   1      -0.089   1.516  -3.053  0.00  0.00     0.040 A 
ATOM     34  C   UNL d   1      -1.265   1.898  -2.383  0.00  0.00     0.102 A 
ATOM     35  C   UNL d   1      -1.178   2.383  -1.067  0.00  0.00     0.110 A 
ATOM     36  C   UNL d   1       0.067   2.487  -0.444  0.00  0.00     0.047 A 
ATOM     37  O   UNL d   1      -2.321   2.753  -0.352  0.00  0.00    -0.305 OA
ATOM     38  C   UNL d   1       1.630   2.691   2.253  0.00  0.00     0.272 C 
ATOM     39  C   UNL d   1       2.416   0.662   3.077  0.00  0.00     0.272 C 
ATOM     40  C   UNL d   1      -6.015  -2.414  -0.737  0.00  0.00     0.272 C 
ENDROOT
BRANCH   7  41
ATOM     41  O   UNL d   1      -4.423   3.640   1.226  0.00  0.00    -0.353 OA
ATOM     42  C   UNL d   1      -5.454   4.174   2.045  0.00  0.00     0.210 C 
ENDBRANCH   7  41
BRANCH  34  43
ATOM     43  O   UNL d   1      -2.517   1.806  -3.001  0.00  0.00    -0.353 OA
ATOM     44  C   UNL d   1      -2.688   1.305  -4.319  0.00  0.00     0.210 C 
ENDBRANCH  34  43
BRANCH  25  45
ATOM     45  O   UNL d   1       4.787  -2.698  -1.797  0.00  0.00    -0.351 OA
ATOM     46  C   UNL d   1       3.660  -3.098  -2.563  0.00  0.00     0.210 C 
ENDBRANCH  25  45
BRANCH  24  47
ATOM     47  O   UNL d   1       7.113  -2.245  -0.463  0.00  0.00    -0.353 OA
ATOM     48  C   UNL d   1       8.374  -2.088   0.173  0.00  0.00     0.210 C 
ENDBRANCH  24  47
TORSDOF 4
