REMARK  Name = fda_7923
REMARK  3 active torsions:
REMARK  status: ('A' for Active; 'I' for Inactive)
REMARK    1  A    between atoms: C_4  and  N_7
REMARK    2  A    between atoms: N_7  and  S_8
REMARK    3  A    between atoms: S_8  and  C_9
REMARK                            x       y       z     vdW  Elec       q    Type
REMARK                         _______ _______ _______ _____ _____    ______ ____
ROOT
ATOM      1  C   UNL A   1      -0.406  -0.276  -0.982  0.00  0.00    +0.152 A 
ATOM      2  N   UNL A   1      -1.423  -1.141  -1.212  0.00  0.00    -0.231 NA
ATOM      3  C   UNL A   1      -2.616  -0.566  -0.918  0.00  0.00    +0.088 A 
ATOM      4  C   UNL A   1      -3.850  -1.204  -1.050  0.00  0.00    +0.020 A 
ATOM      5  C   UNL A   1      -5.013  -0.492  -0.710  0.00  0.00    +0.002 A 
ATOM      6  C   UNL A   1      -4.929   0.836  -0.246  0.00  0.00    +0.001 A 
ATOM      7  C   UNL A   1      -3.683   1.468  -0.117  0.00  0.00    +0.008 A 
ATOM      8  C   UNL A   1      -2.547   0.741  -0.461  0.00  0.00    +0.049 A 
ATOM      9  S   UNL A   1      -0.941   1.225  -0.411  0.00  0.00    -0.059 S 
ENDROOT
BRANCH   1  10
ATOM     10  S   UNL A   1       1.309  -0.689  -1.256  0.00  0.00    +0.003 S 
BRANCH  10  11
ATOM     11  N   UNL A   1       1.496  -1.301   0.400  0.00  0.00    -0.158 NA
BRANCH  11  15
ATOM     12  C   UNL A   1       4.930   0.738   1.883  0.00  0.00    +0.000 C 
ATOM     13  C   UNL A   1       5.037   0.061   0.521  0.00  0.00    +0.002 C 
ATOM     14  C   UNL A   1       3.968  -1.027   0.365  0.00  0.00    +0.018 C 
ATOM     15  C   UNL A   1       2.641  -0.670   1.057  0.00  0.00    +0.085 C 
ATOM     16  C   UNL A   1       2.441   0.837   1.240  0.00  0.00    +0.018 C 
ATOM     17  C   UNL A   1       3.586   1.461   2.050  0.00  0.00    +0.002 C 
ENDBRANCH  11  15
ENDBRANCH  10  11
ENDBRANCH   1  10
TORSDOF 3
