REMARK  8 active torsions:
REMARK  status: ('A' for Active; 'I' for Inactive)
REMARK    1  A    between atoms: C_2  and  N_3 
REMARK    2  A    between atoms: N_3  and  C_4 
REMARK    3  A    between atoms: N_3  and  C_6 
REMARK    4  A    between atoms: C_6  and  C_7 
REMARK    5  A    between atoms: C_7  and  O_8 
REMARK    6  A    between atoms: O_8  and  C_9 
REMARK    7  A    between atoms: C_9  and  C_11 
REMARK    8  A    between atoms: C_11  and  C_17 
ROOT
ATOM      1  C   UNL d   1      -1.479  -0.648   0.409  0.00  0.00     0.051 C 
ATOM      2  C   UNL d   1      -2.612  -1.697   0.525  0.00  0.00     0.020 C 
ATOM      3  C   UNL d   1      -3.623  -1.607  -0.618  0.00  0.00     0.001 C 
ATOM      4  C   UNL d   1      -2.952  -1.847  -1.974  0.00  0.00     0.000 C 
ATOM      5  C   UNL d   1      -1.513  -1.320  -2.047  0.00  0.00     0.001 C 
ATOM      6  C   UNL d   1      -1.281  -0.183  -1.055  0.00  0.00     0.020 C 
ENDROOT
BRANCH   1   7
ATOM      7  C   UNL d   1      -0.213  -1.296   0.922  0.00  0.00     0.268 C 
ATOM      8  O   UNL d   1      -0.217  -1.882   2.042  0.00  0.00    -0.264 OA
BRANCH   7   9
ATOM      9  O   UNL d   1       0.972  -1.202   0.188  0.00  0.00    -0.319 OA
BRANCH   9  10
ATOM     10  C   UNL d   1       2.198  -1.743   0.657  0.00  0.00     0.209 C 
BRANCH  10  11
ATOM     11  C   UNL d   1       3.312  -1.418  -0.323  0.00  0.00     0.299 C 
BRANCH  11  12
ATOM     12  N   UNL d   1       3.543   0.022  -0.360  0.00  0.00     0.089 N 
BRANCH  12  13
ATOM     13  C   UNL d   1       4.986   0.291  -0.383  0.00  0.00     0.268 C 
ATOM     14  C   UNL d   1       5.703  -0.319  -1.589  0.00  0.00     0.037 C 
ENDBRANCH  12  13
BRANCH  12  15
ATOM     15  C   UNL d   1       2.918   0.560  -1.563  0.00  0.00     0.268 C 
ATOM     16  C   UNL d   1       2.240   1.877  -1.243  0.00  0.00     0.037 C 
ENDBRANCH  12  15
ENDBRANCH  11  12
ENDBRANCH  10  11
ENDBRANCH   9  10
ENDBRANCH   7   9
ENDBRANCH   1   7
BRANCH   1  17
ATOM     17  C   UNL d   1      -1.815   0.574   1.297  0.00  0.00     0.004 C 
ATOM     18  C   UNL d   1      -0.655   1.591   1.399  0.00  0.00     0.006 C 
ATOM     19  C   UNL d   1      -0.903   2.823   0.532  0.00  0.00     0.000 C 
ATOM     20  C   UNL d   1      -2.178   3.560   0.961  0.00  0.00     0.000 C 
ATOM     21  C   UNL d   1      -3.267   2.633   1.518  0.00  0.00     0.000 C 
ATOM     22  C   UNL d   1      -3.162   1.231   0.928  0.00  0.00     0.006 C 
ENDBRANCH   1  17
TORSDOF 8
