REMARK  Name = fda_7846
REMARK  7 active torsions:
REMARK  status: ('A' for Active; 'I' for Inactive)
REMARK    1  A    between atoms: C_5  and  C_7
REMARK    2  A    between atoms: C_7  and  C_8
REMARK    3  A    between atoms: C_7  and  C_19
REMARK    4  A    between atoms: C_11  and  O_14
REMARK    5  A    between atoms: O_14  and  S_15
REMARK    6  A    between atoms: C_22  and  O_25
REMARK    7  A    between atoms: O_25  and  S_26
REMARK                            x       y       z     vdW  Elec       q    Type
REMARK                         _______ _______ _______ _____ _____    ______ ____
ROOT
ATOM      1  C   UNL A   1       0.078  -1.479   0.158  0.00  0.00    +0.085 C 
ENDROOT
BRANCH   1   6
ATOM      2  C   UNL A   1      -0.210  -2.778  -3.405  0.00  0.00    +0.003 A 
ATOM      3  C   UNL A   1      -0.208  -4.154  -3.171  0.00  0.00    +0.021 A 
ATOM      4  C   UNL A   1      -0.112  -4.621  -1.859  0.00  0.00    +0.099 A 
ATOM      5  N   UNL A   1      -0.023  -3.741  -0.826  0.00  0.00    -0.247 NA
ATOM      6  C   UNL A   1      -0.024  -2.395  -1.028  0.00  0.00    +0.067 A 
ATOM      7  C   UNL A   1      -0.118  -1.891  -2.333  0.00  0.00    +0.015 A 
ENDBRANCH   1   6
BRANCH   1   8
ATOM      8  C   UNL A   1      -1.158  -0.662   0.403  0.00  0.00    -0.013 A 
ATOM      9  C   UNL A   1      -1.573   0.328  -0.499  0.00  0.00    -0.000 A 
ATOM     10  C   UNL A   1      -2.727   1.074  -0.243  0.00  0.00    +0.040 A 
ATOM     11  C   UNL A   1      -3.477   0.840   0.914  0.00  0.00    +0.172 A 
ATOM     12  C   UNL A   1      -3.060  -0.151   1.816  0.00  0.00    +0.040 A 
ATOM     13  C   UNL A   1      -1.906  -0.897   1.560  0.00  0.00    -0.000 A 
BRANCH  11  14
ATOM     14  O   UNL A   1      -4.626   1.603   1.139  0.00  0.00    -0.359 OA
BRANCH  14  15
ATOM     15  S   UNL A   1      -5.624   1.414   2.515  0.00  0.00    +0.043 S 
ATOM     16  O   UNL A   1      -4.832   1.702   3.759  0.00  0.00    -0.336 OA
ATOM     17  O   UNL A   1      -6.777   2.373   2.427  0.00  0.00    -0.336 OA
ATOM     18  O   UNL A   1      -6.213  -0.159   2.575  0.00  0.00    -0.259 OA
ENDBRANCH  14  15
ENDBRANCH  11  14
ENDBRANCH   1   8
BRANCH   1  19
ATOM     19  C   UNL A   1       1.352  -0.687   0.208  0.00  0.00    -0.013 A 
ATOM     20  C   UNL A   1       2.267  -0.941   1.236  0.00  0.00    -0.000 A 
ATOM     21  C   UNL A   1       3.461  -0.219   1.309  0.00  0.00    +0.040 A 
ATOM     22  C   UNL A   1       3.754   0.763   0.358  0.00  0.00    +0.172 A 
ATOM     23  C   UNL A   1       2.837   1.018  -0.673  0.00  0.00    +0.040 A 
ATOM     24  C   UNL A   1       1.643   0.297  -0.748  0.00  0.00    -0.000 A 
BRANCH  22  25
ATOM     25  O   UNL A   1       4.959   1.466   0.462  0.00  0.00    -0.359 OA
BRANCH  25  26
ATOM     26  S   UNL A   1       5.433   2.688  -0.636  0.00  0.00    +0.043 S 
ATOM     27  O   UNL A   1       5.529   2.116  -2.022  0.00  0.00    -0.336 OA
ATOM     28  O   UNL A   1       4.424   3.802  -0.622  0.00  0.00    -0.336 OA
ATOM     29  O   UNL A   1       6.932   3.292  -0.179  0.00  0.00    -0.259 OA
ENDBRANCH  25  26
ENDBRANCH  22  25
ENDBRANCH   1  19
TORSDOF 7
