REMARK  14 active torsions:
REMARK  status: ('A' for Active; 'I' for Inactive)
REMARK    1  A    between atoms: C_2  and  C_3 
REMARK    2  A    between atoms: C_9  and  O_10 
REMARK    3  A    between atoms: O_10  and  C_11 
REMARK    4  A    between atoms: C_13  and  O_15 
REMARK    5  A    between atoms: C_17  and  O_18 
REMARK    6  A    between atoms: C_25  and  O_26 
REMARK    7  A    between atoms: O_26  and  C_27 
REMARK    8  A    between atoms: C_32  and  N_39 
REMARK    9  A    between atoms: C_33  and  O_34 
REMARK   10  A    between atoms: O_34  and  C_35 
REMARK   11  A    between atoms: C_35  and  C_37 
REMARK   12  A    between atoms: C_42  and  O_44 
REMARK   13  A    between atoms: C_53  and  O_54 
REMARK   14  A    between atoms: C_56  and  O_58 
ROOT
ATOM      1  C   UNL d   1      -4.463   0.549  -0.903  0.00  0.00     0.168 C 
ATOM      2  O   UNL d   1      -3.139   0.376  -1.405  0.00  0.00    -0.312 OA
ATOM      3  C   UNL d   1      -2.775  -0.682  -2.241  0.00  0.00     0.265 C 
ATOM      4  O   UNL d   1      -3.623  -1.542  -2.602  0.00  0.00    -0.265 OA
ATOM      5  C   UNL d   1      -1.375  -0.770  -2.747  0.00  0.00     0.111 C 
ATOM      6  C   UNL d   1      -1.131   0.346  -3.757  0.00  0.00     0.023 C 
ATOM      7  C   UNL d   1      -0.383  -0.822  -1.564  0.00  0.00     0.144 C 
ATOM      8  C   UNL d   1       0.697   0.282  -1.575  0.00  0.00     0.043 C 
ATOM      9  C   UNL d   1       1.836   0.001  -2.543  0.00  0.00     0.015 C 
ATOM     10  C   UNL d   1       1.220   0.698  -0.185  0.00  0.00     0.165 C 
ATOM     11  C   UNL d   1       0.343   1.802   0.434  0.00  0.00     0.081 C 
ATOM     12  C   UNL d   1       0.908   2.201   1.789  0.00  0.00     0.049 C 
ATOM     13  C   UNL d   1       0.326   3.031  -0.485  0.00  0.00     0.051 C 
ATOM     14  C   UNL d   1      -0.586   4.152   0.009  0.00  0.00     0.054 C 
ATOM     15  C   UNL d   1      -0.002   5.497  -0.388  0.00  0.00     0.018 C 
ATOM     16  C   UNL d   1      -1.972   4.009  -0.541  0.00  0.00     0.137 C 
ATOM     17  O   UNL d   1      -2.151   3.973  -1.750  0.00  0.00    -0.297 OA
ATOM     18  C   UNL d   1      -3.132   3.927   0.410  0.00  0.00     0.083 C 
ATOM     19  C   UNL d   1      -4.181   5.002   0.150  0.00  0.00     0.020 C 
ATOM     20  C   UNL d   1      -3.707   2.508   0.524  0.00  0.00     0.165 C 
ATOM     21  C   UNL d   1      -4.719   2.026  -0.553  0.00  0.00     0.107 C 
ATOM     22  C   UNL d   1      -6.155   2.210  -0.079  0.00  0.00     0.051 C 
ENDROOT
BRANCH  10  23
ATOM     23  O   UNL d   1       1.299  -0.396   0.699  0.00  0.00    -0.350 OA
BRANCH  23  24
ATOM     24  C   UNL d   1       2.622  -0.886   0.778  0.00  0.00     0.292 C 
ATOM     25  O   UNL d   1       3.032  -1.555  -0.391  0.00  0.00    -0.354 OA
ATOM     26  C   UNL d   1       4.024  -2.474   0.006  0.00  0.00     0.122 C 
ATOM     27  C   UNL d   1       4.370  -3.375  -1.161  0.00  0.00     0.040 C 
ATOM     28  C   UNL d   1       5.286  -1.744   0.483  0.00  0.00     0.070 C 
ATOM     29  C   UNL d   1       4.913  -0.809   1.640  0.00  0.00     0.258 C 
ATOM     30  C   UNL d   1       3.701   0.088   1.288  0.00  0.00     0.220 C 
BRANCH  29  31
ATOM     31  N   UNL d   1       6.086  -0.145   2.236  0.00  0.00     0.087 N 
ATOM     32  C   UNL d   1       6.730   0.765   1.296  0.00  0.00     0.310 C 
ATOM     33  C   UNL d   1       5.677   0.624   3.401  0.00  0.00     0.310 C 
ENDBRANCH  29  31
BRANCH  30  34
ATOM     34  O   UNL d   1       4.041   1.015   0.258  0.00  0.00    -0.309 OA
BRANCH  34  35
ATOM     35  C   UNL d   1       4.175   2.385   0.498  0.00  0.00     0.259 C 
ATOM     36  O   UNL d   1       3.962   2.864   1.644  0.00  0.00    -0.265 OA
BRANCH  35  37
ATOM     37  C   UNL d   1       4.585   3.288  -0.612  0.00  0.00     0.106 C 
ATOM     38  C   UNL d   1       3.453   3.433  -1.610  0.00  0.00     0.015 C 
ENDBRANCH  35  37
ENDBRANCH  34  35
ENDBRANCH  30  34
ENDBRANCH  23  24
ENDBRANCH  10  23
BRANCH  11  39
ATOM     39  O   UNL d   1      -0.954   1.317   0.616  0.00  0.00    -0.388 OA
ATOM     40  HO  UNL d   1      -1.496   1.998   0.998  1.00  0.00     0.210 HD
ENDBRANCH  11  39
BRANCH   7  41
ATOM     41  O   UNL d   1       0.204  -2.095  -1.476  0.00  0.00    -0.355 OA
BRANCH  41  42
ATOM     42  C   UNL d   1      -0.638  -2.861  -0.663  0.00  0.00     0.263 C 
ATOM     43  C   UNL d   1       0.007  -3.061   0.714  0.00  0.00     0.101 C 
ATOM     44  C   UNL d   1      -0.555  -4.289   1.472  0.00  0.00     0.089 C 
ATOM     45  C   UNL d   1       0.357  -5.497   1.237  0.00  0.00     0.049 C 
ATOM     46  C   UNL d   1      -1.953  -4.640   0.927  0.00  0.00     0.181 C 
ATOM     47  C   UNL d   1      -1.945  -4.757  -0.622  0.00  0.00     0.152 C 
ATOM     48  C   UNL d   1      -3.279  -4.446  -1.283  0.00  0.00     0.042 C 
ATOM     49  O   UNL d   1      -0.870  -4.106  -1.276  0.00  0.00    -0.354 OA
BRANCH  44  50
ATOM     50  O   UNL d   1      -0.682  -4.024   2.862  0.00  0.00    -0.383 OA
ATOM     51  C   UNL d   1       0.564  -3.672   3.413  0.00  0.00     0.202 C 
ENDBRANCH  44  50
BRANCH  46  52
ATOM     52  O   UNL d   1      -2.880  -3.679   1.347  0.00  0.00    -0.390 OA
ATOM     53  HO  UNL d   1      -3.742  -3.896   1.011  1.00  0.00     0.210 HD
ENDBRANCH  46  52
ENDBRANCH  41  42
ENDBRANCH   7  41
BRANCH   1  54
ATOM     54  C   UNL d   1      -4.785  -0.453   0.216  0.00  0.00     0.031 C 
ATOM     55  C   UNL d   1      -3.638  -0.631   1.197  0.00  0.00     0.007 C 
ENDBRANCH   1  54
BRANCH  20  56
ATOM     56  O   UNL d   1      -4.169   2.283   1.824  0.00  0.00    -0.392 OA
ATOM     57  HO  UNL d   1      -4.524   1.404   1.895  1.00  0.00     0.210 HD
ENDBRANCH  20  56
BRANCH  21  58
ATOM     58  O   UNL d   1      -4.574   2.761  -1.730  0.00  0.00    -0.385 OA
ATOM     59  HO  UNL d   1      -5.193   2.467  -2.388  1.00  0.00     0.210 HD
ENDBRANCH  21  58
TORSDOF 14
