REMARK  2 active torsions:
REMARK  status: ('A' for Active; 'I' for Inactive)
REMARK    1  A    between atoms: C_2  and  C_3 
REMARK    2  A    between atoms: C_2  and  C_18 
ROOT
ATOM      1  C   UNL d   1       2.169  -0.381  -0.203  0.00  0.00    -0.043 A 
ATOM      2  C   UNL d   1       2.078   0.906  -0.753  0.00  0.00     0.011 A 
ATOM      3  C   UNL d   1       0.831   1.508  -0.932  0.00  0.00     0.038 A 
ATOM      4  C   UNL d   1      -0.335   0.831  -0.563  0.00  0.00     0.084 A 
ATOM      5  C   UNL d   1      -0.250  -0.461  -0.008  0.00  0.00    -0.019 A 
ATOM      6  C   UNL d   1       1.002  -1.057   0.169  0.00  0.00     0.018 A 
ATOM      7  C   UNL d   1      -1.480  -1.219   0.403  0.00  0.00     0.084 A 
ATOM      8  C   UNL d   1      -2.762  -0.474   0.162  0.00  0.00    -0.002 A 
ATOM      9  C   UNL d   1      -3.977  -1.073   0.501  0.00  0.00     0.013 A 
ATOM     10  C   UNL d   1      -5.176  -0.394   0.283  0.00  0.00     0.018 A 
ATOM     11  C   UNL d   1      -5.143   0.886  -0.275  0.00  0.00     0.090 A 
ATOM     12  N   UNL d   1      -3.953   1.459  -0.600  0.00  0.00    -0.346 N 
ATOM     13  HN  UNL d   1      -3.947   2.394  -1.007  1.00  0.00     0.167 HD
ATOM     14  C   UNL d   1      -2.771   0.816  -0.398  0.00  0.00     0.154 A 
ATOM     15  O   UNL d   1      -1.575   1.445  -0.749  0.00  0.00    -0.293 OA
ENDROOT
BRANCH   1  16
ATOM     16  C   UNL d   1       3.494  -1.047   0.009  0.00  0.00     0.115 C 
ATOM     17  C   UNL d   1       4.278  -1.171  -1.288  0.00  0.00     0.026 C 
BRANCH  16  18
ATOM     18  C   UNL d   1       4.298  -0.365   1.071  0.00  0.00     0.181 C 
ATOM     19  O   UNL d   1       4.809   0.768   0.864  0.00  0.00    -0.647 OA
ATOM     20  O   UNL d   1       4.462  -0.978   2.306  0.00  0.00    -0.647 OA
ENDBRANCH  16  18
ENDBRANCH   1  16
TORSDOF 2
