REMARK  5 active torsions:
REMARK  status: ('A' for Active; 'I' for Inactive)
REMARK    1  A    between atoms: C_4  and  O_5 
REMARK    2  A    between atoms: C_4  and  C_7 
REMARK    3  A    between atoms: C_7  and  C_9 
REMARK    4  A    between atoms: C_9  and  O_10 
REMARK    5  A    between atoms: O_10  and  C_11 
ROOT
ATOM      1  C   UNL d   1      -0.162  -0.909   0.953  0.00  0.00     0.002 C 
ATOM      2  C   UNL d   1       0.444  -1.139   2.322  0.00  0.00     0.009 C 
ATOM      3  C   UNL d   1       1.667  -2.016   2.046  0.00  0.00     0.047 C 
ATOM      4  C   UNL d   1       1.848  -2.082   0.518  0.00  0.00     0.128 C 
ATOM      5  C   UNL d   1       1.016  -0.893  -0.006  0.00  0.00     0.005 C 
ATOM      6  C   UNL d   1       1.799   0.429   0.104  0.00  0.00     0.019 C 
ATOM      7  C   UNL d   1       0.486  -1.049  -1.435  0.00  0.00     0.091 C 
ATOM      8  C   UNL d   1      -0.571  -0.007  -1.714  0.00  0.00     0.133 C 
ATOM      9  O   UNL d   1      -0.565   0.568  -2.792  0.00  0.00    -0.297 OA
ATOM     10  C   UNL d   1      -1.662   0.256  -0.675  0.00  0.00     0.076 C 
ATOM     11  C   UNL d   1      -1.080   0.299   0.762  0.00  0.00     0.003 C 
ATOM     12  C   UNL d   1      -2.216   0.287   1.781  0.00  0.00     0.010 C 
ATOM     13  C   UNL d   1      -3.083   1.527   1.606  0.00  0.00     0.036 C 
ATOM     14  C   UNL d   1      -3.598   1.587   0.203  0.00  0.00    -0.063 C 
ATOM     15  C   UNL d   1      -4.895   1.843   0.012  0.00  0.00     0.058 C 
ATOM     16  C   UNL d   1      -5.454   1.878  -1.341  0.00  0.00     0.172 C 
ATOM     17  O   UNL d   1      -6.657   2.196  -1.524  0.00  0.00    -0.289 OA
ATOM     18  C   UNL d   1      -4.614   1.482  -2.472  0.00  0.00     0.052 C 
ATOM     19  C   UNL d   1      -3.313   1.251  -2.288  0.00  0.00    -0.008 C 
ATOM     20  C   UNL d   1      -2.611   1.454  -0.958  0.00  0.00     0.008 C 
ATOM     21  C   UNL d   1      -1.810   2.749  -1.045  0.00  0.00     0.025 C 
ENDROOT
BRANCH   4  22
ATOM     22  O   UNL d   1       1.294  -3.288   0.074  0.00  0.00    -0.381 OA
ATOM     23  HO  UNL d   1       1.405  -3.329  -0.869  1.00  0.00     0.211 HD
ENDBRANCH   4  22
BRANCH   4  24
ATOM     24  C   UNL d   1       3.304  -2.039   0.093  0.00  0.00     0.185 C 
ATOM     25  O   UNL d   1       3.585  -2.084  -1.095  0.00  0.00    -0.292 OA
BRANCH  24  26
ATOM     26  C   UNL d   1       4.417  -1.919   1.087  0.00  0.00     0.260 C 
BRANCH  26  27
ATOM     27  O   UNL d   1       4.659  -0.548   1.369  0.00  0.00    -0.314 OA
BRANCH  27  28
ATOM     28  C   UNL d   1       5.623  -0.146   2.292  0.00  0.00     0.255 C 
ATOM     29  C   UNL d   1       5.830   1.303   2.548  0.00  0.00     0.126 C 
ATOM     30  O   UNL d   1       6.319  -0.993   2.913  0.00  0.00    -0.266 OA
ENDBRANCH  27  28
ENDBRANCH  26  27
ENDBRANCH  24  26
ENDBRANCH   4  24
TORSDOF 5
