REMARK  9 active torsions:
REMARK  status: ('A' for Active; 'I' for Inactive)
REMARK    1  A    between atoms: C_8  and  C_24 
REMARK    2  A    between atoms: C_8  and  O_34 
REMARK    3  A    between atoms: C_11  and  O_21 
REMARK    4  A    between atoms: C_24  and  C_26 
REMARK    5  A    between atoms: C_26  and  O_27 
REMARK    6  A    between atoms: O_27  and  C_28 
REMARK    7  A    between atoms: C_28  and  C_30 
REMARK    8  A    between atoms: C_30  and  C_31 
REMARK    9  A    between atoms: C_31  and  C_32 
ROOT
ATOM      1  C   UNL d   1      -2.733  -3.758   1.278  0.00  0.00     0.015 C 
ATOM      2  C   UNL d   1      -2.723  -2.499   0.426  0.00  0.00     0.012 C 
ATOM      3  C   UNL d   1      -1.265  -2.066   0.237  0.00  0.00     0.014 C 
ATOM      4  C   UNL d   1      -1.066  -0.650  -0.336  0.00  0.00    -0.001 C 
ATOM      5  C   UNL d   1      -0.721  -0.644  -1.824  0.00  0.00     0.002 C 
ATOM      6  C   UNL d   1       0.563  -1.435  -2.066  0.00  0.00     0.009 C 
ATOM      7  C   UNL d   1       1.631  -0.460  -2.540  0.00  0.00     0.047 C 
ATOM      8  C   UNL d   1       1.086   0.946  -2.323  0.00  0.00     0.128 C 
ATOM      9  C   UNL d   1      -0.455   0.771  -2.381  0.00  0.00     0.001 C 
ATOM     10  C   UNL d   1      -1.259   1.936  -1.733  0.00  0.00     0.045 C 
ATOM     11  C   UNL d   1      -1.779   1.736  -0.303  0.00  0.00     0.124 C 
ATOM     12  C   UNL d   1      -2.239   0.298  -0.094  0.00  0.00     0.035 C 
ATOM     13  C   UNL d   1      -3.040   0.001   1.188  0.00  0.00     0.004 C 
ATOM     14  C   UNL d   1      -3.590  -1.416   1.033  0.00  0.00    -0.060 C 
ATOM     15  C   UNL d   1      -4.865  -1.706   1.329  0.00  0.00     0.059 C 
ATOM     16  C   UNL d   1      -5.795  -0.663   1.766  0.00  0.00     0.172 C 
ATOM     17  O   UNL d   1      -6.954  -0.965   2.151  0.00  0.00    -0.289 OA
ATOM     18  C   UNL d   1      -5.385   0.738   1.682  0.00  0.00     0.052 C 
ATOM     19  C   UNL d   1      -4.124   1.044   1.377  0.00  0.00    -0.009 C 
ATOM     20  C   UNL d   1      -2.144   0.049   2.422  0.00  0.00     0.025 C 
ATOM     21  C   UNL d   1      -0.920   0.732  -3.836  0.00  0.00     0.019 C 
ENDROOT
BRANCH   8  22
ATOM     22  C   UNL d   1       1.582   1.516  -1.002  0.00  0.00     0.185 C 
ATOM     23  O   UNL d   1       1.615   2.728  -0.848  0.00  0.00    -0.292 OA
BRANCH  22  24
ATOM     24  C   UNL d   1       2.056   0.640   0.122  0.00  0.00     0.260 C 
BRANCH  24  25
ATOM     25  O   UNL d   1       3.425   0.300  -0.057  0.00  0.00    -0.314 OA
BRANCH  25  26
ATOM     26  C   UNL d   1       4.465   1.177   0.259  0.00  0.00     0.259 C 
ATOM     27  O   UNL d   1       4.227   2.303   0.774  0.00  0.00    -0.265 OA
BRANCH  26  28
ATOM     28  C   UNL d   1       5.875   0.758   0.024  0.00  0.00     0.121 C 
BRANCH  28  29
ATOM     29  C   UNL d   1       6.440   0.043   1.243  0.00  0.00     0.123 C 
BRANCH  29  30
ATOM     30  C   UNL d   1       5.922  -1.352   1.330  0.00  0.00     0.172 C 
ATOM     31  O   UNL d   1       4.984  -1.627   2.122  0.00  0.00    -0.648 OA
ATOM     32  O   UNL d   1       6.455  -2.344   0.517  0.00  0.00    -0.648 OA
ENDBRANCH  29  30
ENDBRANCH  28  29
ENDBRANCH  26  28
ENDBRANCH  25  26
ENDBRANCH  24  25
ENDBRANCH  22  24
ENDBRANCH   8  22
BRANCH   8  33
ATOM     33  O   UNL d   1       1.544   1.766  -3.361  0.00  0.00    -0.381 OA
ATOM     34  HO  UNL d   1       1.204   2.643  -3.225  1.00  0.00     0.211 HD
ENDBRANCH   8  33
BRANCH  11  35
ATOM     35  O   UNL d   1      -0.812   2.101   0.636  0.00  0.00    -0.395 OA
ATOM     36  HO  UNL d   1      -1.134   1.978   1.521  1.00  0.00     0.210 HD
ENDBRANCH  11  35
TORSDOF 9
