REMARK  4 active torsions:
REMARK  status: ('A' for Active; 'I' for Inactive)
REMARK    1  A    between atoms: C_2  and  O_4 
REMARK    2  A    between atoms: C_5  and  O_4 
REMARK    3  A    between atoms: C_21  and  O_24 
REMARK    4  A    between atoms: O_24  and  C_25 
ROOT
ATOM      1  C   UNL d   1       4.525   0.600  -0.065  0.00  0.00     0.155 C 
ATOM      2  C   UNL d   1       4.541  -0.721   0.714  0.00  0.00     0.037 C 
ATOM      3  C   UNL d   1       3.184  -1.406   0.608  0.00  0.00     0.012 C 
ATOM      4  C   UNL d   1       2.123  -0.519   1.259  0.00  0.00     0.019 C 
ATOM      5  C   UNL d   1       0.706  -1.057   1.056  0.00  0.00    -0.002 C 
ATOM      6  C   UNL d   1       0.328  -1.088  -0.446  0.00  0.00     0.006 C 
ATOM      7  C   UNL d   1      -1.150  -1.438  -0.688  0.00  0.00     0.014 C 
ATOM      8  C   UNL d   1      -2.066  -0.466   0.067  0.00  0.00     0.003 C 
ATOM      9  C   UNL d   1      -1.724  -0.560   1.538  0.00  0.00     0.002 C 
ATOM     10  C   UNL d   1      -0.282  -0.233   1.919  0.00  0.00    -0.005 C 
ATOM     11  C   UNL d   1       0.022   1.275   2.053  0.00  0.00     0.009 C 
ATOM     12  C   UNL d   1       1.016   1.831   1.024  0.00  0.00     0.034 C 
ATOM     13  C   UNL d   1       2.204   0.932   0.824  0.00  0.00    -0.077 C 
ATOM     14  C   UNL d   1       3.317   1.439   0.272  0.00  0.00     0.008 C 
ATOM     15  C   UNL d   1      -2.876   0.048   2.304  0.00  0.00     0.010 C 
ATOM     16  C   UNL d   1      -4.096  -0.256   1.429  0.00  0.00     0.053 C 
ATOM     17  C   UNL d   1      -3.575  -0.824   0.093  0.00  0.00     0.140 C 
ATOM     18  C   UNL d   1      -3.782  -2.285   0.138  0.00  0.00    -0.077 C 
ATOM     19  C   UNL d   1      -3.952  -3.478   0.174  0.00  0.00     0.015 C 
ATOM     20  C   UNL d   1      -1.840   0.954  -0.466  0.00  0.00     0.020 C 
ENDROOT
BRANCH  17  21
ATOM     21  O   UNL d   1      -4.296  -0.324  -1.046  0.00  0.00    -0.296 OA
BRANCH  21  22
ATOM     22  C   UNL d   1      -4.797   0.976  -1.220  0.00  0.00     0.256 C 
ATOM     23  O   UNL d   1      -4.667   1.859  -0.331  0.00  0.00    -0.266 OA
ATOM     24  C   UNL d   1      -5.500   1.316  -2.483  0.00  0.00     0.126 C 
ENDBRANCH  21  22
ENDBRANCH  17  21
BRANCH   1  25
ATOM     25  O   UNL d   1       4.540   0.344  -1.465  0.00  0.00    -0.312 OA
BRANCH  25  26
ATOM     26  C   UNL d   1       5.689  -0.074  -2.139  0.00  0.00     0.255 C 
ATOM     27  C   UNL d   1       5.622  -0.351  -3.597  0.00  0.00     0.126 C 
ATOM     28  O   UNL d   1       6.783  -0.215  -1.528  0.00  0.00    -0.266 OA
ENDBRANCH  25  26
ENDBRANCH   1  25
TORSDOF 4
