REMARK  2 active torsions:
REMARK  status: ('A' for Active; 'I' for Inactive)
REMARK    1  A    between atoms: C_3  and  S_19 
REMARK    2  A    between atoms: N_8  and  N_10 
REMARK       I    between atoms: N_10  and  C_12 
ROOT
ATOM      1  C   UNL d   1      -2.989  -2.087  -0.917  0.00  0.00     0.151 C 
ATOM      2  N   UNL d   1      -2.126  -0.964  -0.586  0.00  0.00    -0.364 N 
ATOM      3  C   UNL d   1      -2.455   0.437  -0.857  0.00  0.00     0.233 A 
ATOM      4  C   UNL d   1      -1.161   1.256  -0.621  0.00  0.00     0.085 A 
ATOM      5  C   UNL d   1      -0.150   0.233  -0.241  0.00  0.00    -0.026 A 
ATOM      6  C   UNL d   1       1.135   0.434   0.054  0.00  0.00     0.044 A 
ATOM      7  C   UNL d   1       1.978  -0.742   0.396  0.00  0.00     0.098 A 
ATOM      8  N   UNL d   1       3.229  -0.621   0.734  0.00  0.00    -0.293 N 
ATOM      9  HN  UNL d   1       3.727  -1.460   1.028  1.00  0.00     0.187 HD
ATOM     10  C   UNL d   1       1.333  -2.082   0.405  0.00  0.00     0.202 A 
ATOM     11  O   UNL d   1       1.991  -3.114   0.700  0.00  0.00    -0.286 OA
ATOM     12  C   UNL d   1      -0.099  -2.192   0.060  0.00  0.00     0.087 A 
ATOM     13  C   UNL d   1      -0.761  -1.070  -0.237  0.00  0.00     0.041 A 
ENDROOT
BRANCH   8  14
ATOM     14  N   UNL d   1       3.937   0.595   0.719  0.00  0.00    -0.254 N 
ATOM     15  C   UNL d   1       4.007   1.453  -0.424  0.00  0.00     0.347 C 
ATOM     16  O   UNL d   1       3.581   1.067  -1.544  0.00  0.00    -0.249 OA
ATOM     17  N   UNL d   1       4.600   2.740  -0.302  0.00  0.00    -0.038 NA
ATOM     18  HN  UNL d   1       4.427   0.879   1.567  1.00  0.00     0.191 HD
ENDBRANCH   8  14
BRANCH   3  19
ATOM     19  S   UNL d   1      -3.734   1.000   0.254  0.00  0.00     0.125 S 
ATOM     20  O   UNL d   1      -5.013   0.269  -0.038  0.00  0.00    -0.594 OA
ATOM     21  O   UNL d   1      -3.325   0.741   1.676  0.00  0.00    -0.594 OA
ATOM     22  O   UNL d   1      -3.978   2.648   0.036  0.00  0.00    -0.594 OA
ENDBRANCH   3  19
TORSDOF 2
