REMARK  8 active torsions:
REMARK  status: ('A' for Active; 'I' for Inactive)
REMARK    1  A    between atoms: C_4  and  C_34 
REMARK    2  A    between atoms: C_7  and  O_8 
REMARK    3  A    between atoms: C_9  and  O_8 
REMARK    4  A    between atoms: C_13  and  O_14 
REMARK    5  A    between atoms: C_16  and  O_17 
REMARK    6  A    between atoms: C_36  and  O_37 
REMARK    7  A    between atoms: C_39  and  O_40 
REMARK    8  A    between atoms: C_42  and  O_43 
ROOT
ATOM      1  O   UNL d   1      -2.861   2.920  -1.504  0.00  0.00    -0.265 OA
ATOM      2  C   UNL d   1      -1.886   2.501  -0.827  0.00  0.00     0.264 C 
ATOM      3  C   UNL d   1      -1.251   1.177  -0.978  0.00  0.00     0.107 C 
ATOM      4  C   UNL d   1      -2.107  -0.086  -1.127  0.00  0.00     0.066 C 
ATOM      5  C   UNL d   1      -1.231  -1.317  -0.952  0.00  0.00    -0.037 A 
ATOM      6  C   UNL d   1       0.046  -1.251  -0.284  0.00  0.00    -0.019 A 
ATOM      7  C   UNL d   1       0.647   0.066   0.175  0.00  0.00     0.165 C 
ATOM      8  C   UNL d   1      -0.467   1.095   0.311  0.00  0.00     0.058 C 
ATOM      9  C   UNL d   1      -0.128   2.540   0.667  0.00  0.00     0.187 C 
ATOM     10  O   UNL d   1      -1.210   3.274   0.103  0.00  0.00    -0.321 OA
ATOM     11  C   UNL d   1       0.797  -2.425  -0.095  0.00  0.00     0.050 A 
ATOM     12  C   UNL d   1       0.266  -3.622  -0.562  0.00  0.00     0.105 A 
ATOM     13  C   UNL d   1      -0.933  -3.685  -1.191  0.00  0.00     0.105 A 
ATOM     14  C   UNL d   1      -1.718  -2.558  -1.407  0.00  0.00     0.048 A 
ATOM     15  O   UNL d   1      -1.201  -4.994  -1.542  0.00  0.00    -0.323 OA
ATOM     16  C   UNL d   1      -0.101  -5.805  -1.105  0.00  0.00     0.352 A 
ATOM     17  O   UNL d   1       0.813  -4.888  -0.487  0.00  0.00    -0.323 OA
ENDROOT
BRANCH   7  18
ATOM     18  O   UNL d   1       1.603   0.501  -0.751  0.00  0.00    -0.348 OA
BRANCH  18  19
ATOM     19  C   UNL d   1       2.811   0.518  -0.050  0.00  0.00     0.292 C 
ATOM     20  O   UNL d   1       3.111   1.843   0.341  0.00  0.00    -0.348 OA
ATOM     21  C   UNL d   1       4.220   1.747   1.194  0.00  0.00     0.180 C 
ATOM     22  C   UNL d   1       5.452   1.429   0.365  0.00  0.00     0.187 C 
ATOM     23  C   UNL d   1       4.479   3.044   1.956  0.00  0.00     0.205 C 
ATOM     24  C   UNL d   1       5.287   0.027  -0.205  0.00  0.00     0.183 C 
ATOM     25  O   UNL d   1       6.581   1.546   1.189  0.00  0.00    -0.351 OA
ATOM     26  C   UNL d   1       3.937  -0.064  -0.931  0.00  0.00     0.204 C 
ATOM     27  C   UNL d   1       6.765   2.923   1.508  0.00  0.00     0.256 C 
ATOM     28  C   UNL d   1       7.422   3.061   2.871  0.00  0.00     0.070 C 
ATOM     29  O   UNL d   1       5.593   3.736   1.427  0.00  0.00    -0.359 OA
BRANCH  24  30
ATOM     30  O   UNL d   1       6.321  -0.241  -1.102  0.00  0.00    -0.390 OA
ATOM     31  HO  UNL d   1       6.218  -1.116  -1.458  1.00  0.00     0.210 HD
ENDBRANCH  24  30
BRANCH  26  32
ATOM     32  O   UNL d   1       3.660  -1.398  -1.235  0.00  0.00    -0.388 OA
ATOM     33  HO  UNL d   1       2.824  -1.454  -1.684  1.00  0.00     0.210 HD
ENDBRANCH  26  32
ENDBRANCH  18  19
ENDBRANCH   7  18
BRANCH   4  34
ATOM     34  C   UNL d   1      -3.307  -0.119  -0.217  0.00  0.00    -0.043 A 
ATOM     35  C   UNL d   1      -3.171  -0.249   1.171  0.00  0.00     0.047 A 
ATOM     36  C   UNL d   1      -4.301  -0.272   2.001  0.00  0.00     0.104 A 
ATOM     37  C   UNL d   1      -5.578  -0.166   1.429  0.00  0.00     0.132 A 
ATOM     38  C   UNL d   1      -5.724  -0.031   0.041  0.00  0.00     0.104 A 
ATOM     39  C   UNL d   1      -4.582  -0.009  -0.775  0.00  0.00     0.047 A 
BRANCH  36  40
ATOM     40  O   UNL d   1      -4.179  -0.395   3.389  0.00  0.00    -0.353 OA
ATOM     41  C   UNL d   1      -2.921  -0.489   4.045  0.00  0.00     0.210 C 
ENDBRANCH  36  40
BRANCH  37  42
ATOM     42  O   UNL d   1      -6.704  -0.192   2.244  0.00  0.00    -0.356 OA
ATOM     43  HO  UNL d   1      -7.569  -0.120   1.857  1.00  0.00     0.218 HD
ENDBRANCH  37  42
BRANCH  38  44
ATOM     44  O   UNL d   1      -7.008   0.079  -0.505  0.00  0.00    -0.353 OA
ATOM     45  C   UNL d   1      -7.241   0.227  -1.899  0.00  0.00     0.210 C 
ENDBRANCH  38  44
ENDBRANCH   4  34
TORSDOF 8
