REMARK  4 active torsions:
REMARK  status: ('A' for Active; 'I' for Inactive)
REMARK    1  A    between atoms: O_2  and  C_3 
REMARK    2  A    between atoms: C_5  and  O_6 
REMARK    3  A    between atoms: C_8  and  C_9 
REMARK    4  A    between atoms: C_13  and  O_14 
ROOT
ATOM      1  C   UNL d   1       1.617   0.663  -0.135  0.00  0.00     0.104 A 
ATOM      2  C   UNL d   1       0.537   1.551  -0.014  0.00  0.00     0.077 A 
ATOM      3  C   UNL d   1      -0.779   1.078   0.097  0.00  0.00     0.081 A 
ATOM      4  C   UNL d   1      -1.018  -0.307   0.087  0.00  0.00    -0.000 A 
ATOM      5  C   UNL d   1       0.063  -1.192  -0.033  0.00  0.00     0.054 A 
ATOM      6  C   UNL d   1       1.379  -0.717  -0.144  0.00  0.00     0.102 A 
ENDROOT
BRANCH   4   7
ATOM      7  C   UNL d   1      -2.398  -0.811   0.204  0.00  0.00     0.010 C 
ATOM      8  C   UNL d   1      -2.696  -2.106   0.202  0.00  0.00    -0.030 C 
ATOM      9  C   UNL d   1      -4.111  -2.542   0.324  0.00  0.00     0.036 C 
ENDBRANCH   4   7
BRANCH   3  10
ATOM     10  O   UNL d   1      -1.856   1.966   0.217  0.00  0.00    -0.355 OA
ATOM     11  C   UNL d   1      -1.691   3.377   0.234  0.00  0.00     0.210 C 
ENDBRANCH   3  10
BRANCH   6  12
ATOM     12  O   UNL d   1       2.460  -1.597  -0.265  0.00  0.00    -0.353 OA
ATOM     13  C   UNL d   1       2.303  -3.010  -0.283  0.00  0.00     0.210 C 
ENDBRANCH   6  12
BRANCH   1  14
ATOM     14  O   UNL d   1       2.931   1.131  -0.246  0.00  0.00    -0.353 OA
ATOM     15  C   UNL d   1       3.258   2.514  -0.245  0.00  0.00     0.210 C 
ENDBRANCH   1  14
TORSDOF 4
