REMARK  12 active torsions:
REMARK  status: ('A' for Active; 'I' for Inactive)
REMARK    1  A    between atoms: C_1  and  N_2 
REMARK    2  A    between atoms: C_12  and  C_19 
REMARK    3  A    between atoms: C_13  and  O_17 
REMARK    4  A    between atoms: C_14  and  O_15 
REMARK    5  A    between atoms: C_19  and  O_20 
REMARK    6  A    between atoms: O_20  and  P_21 
REMARK    7  A    between atoms: P_21  and  O_23 
REMARK    8  A    between atoms: O_23  and  P_24 
REMARK    9  A    between atoms: P_24  and  O_26 
REMARK   10  A    between atoms: O_26  and  C_27 
REMARK   11  A    between atoms: C_27  and  C_28 
REMARK   12  A    between atoms: C_28  and  N_29 
ROOT
ATOM      1  C   UNL d   1      -1.585   1.614   0.676  0.00  0.00     0.263 C 
ATOM      2  O   UNL d   1      -2.213   1.938  -0.550  0.00  0.00    -0.353 OA
ATOM      3  C   UNL d   1      -1.195   2.264  -1.475  0.00  0.00     0.180 C 
ATOM      4  C   UNL d   1       0.107   2.495  -0.730  0.00  0.00     0.182 C 
ATOM      5  C   UNL d   1      -0.079   1.685   0.522  0.00  0.00     0.198 C 
ENDROOT
BRANCH   3   6
ATOM      6  C   UNL d   1      -1.061   1.128  -2.483  0.00  0.00     0.216 C 
BRANCH   6   7
ATOM      7  O   UNL d   1      -0.033   1.385  -3.393  0.00  0.00    -0.287 OA
BRANCH   7   8
ATOM      8  P   UNL d   1       0.322  -0.119  -4.103  0.00  0.00     0.417 P 
ATOM      9  O   UNL d   1      -0.735  -0.433  -5.143  0.00  0.00    -0.624 OA
ATOM     10  O   UNL d   1       1.828  -0.036  -4.875  0.00  0.00    -0.624 OA
BRANCH   8  11
ATOM     11  O   UNL d   1       0.318  -1.360  -2.929  0.00  0.00    -0.180 OA
BRANCH  11  12
ATOM     12  P   UNL d   1       1.686  -1.166  -1.929  0.00  0.00     0.417 P 
ATOM     13  O   UNL d   1       2.789  -2.069  -2.434  0.00  0.00    -0.624 OA
ATOM     14  O   UNL d   1       2.248   0.435  -1.903  0.00  0.00    -0.624 OA
BRANCH  12  15
ATOM     15  O   UNL d   1       1.246  -1.644  -0.359  0.00  0.00    -0.288 OA
BRANCH  15  16
ATOM     16  C   UNL d   1       2.259  -1.169   0.477  0.00  0.00     0.209 C 
BRANCH  16  17
ATOM     17  C   UNL d   1       1.759  -1.177   1.925  0.00  0.00     0.262 C 
BRANCH  17  18
ATOM     18  N   UNL d   1       2.757  -0.676   2.875  0.00  0.00    -0.077 N 
ATOM     19  C   UNL d   1       3.949  -1.519   2.879  0.00  0.00     0.271 C 
ATOM     20  C   UNL d   1       3.127   0.703   2.570  0.00  0.00     0.271 C 
ATOM     21  C   UNL d   1       2.169  -0.704   4.205  0.00  0.00     0.271 C 
ENDBRANCH  17  18
ENDBRANCH  16  17
ENDBRANCH  15  16
ENDBRANCH  12  15
ENDBRANCH  11  12
ENDBRANCH   8  11
ENDBRANCH   7   8
ENDBRANCH   6   7
ENDBRANCH   3   6
BRANCH   4  22
ATOM     22  O   UNL d   1       0.226   3.859  -0.441  0.00  0.00    -0.390 OA
ATOM     23  HO  UNL d   1       1.041   4.003   0.026  1.00  0.00     0.210 HD
ENDBRANCH   4  22
BRANCH   1  24
ATOM     24  N   UNL d   1      -2.004   0.287   1.135  0.00  0.00    -0.280 N 
ATOM     25  C   UNL d   1      -2.612   0.140   2.353  0.00  0.00     0.329 A 
ATOM     26  O   UNL d   1      -2.831   1.142   3.085  0.00  0.00    -0.246 OA
ATOM     27  N   UNL d   1      -2.998  -1.094   2.780  0.00  0.00    -0.297 N 
ATOM     28  C   UNL d   1      -2.790  -2.199   2.017  0.00  0.00     0.121 A 
ATOM     29  HN  UNL d   1      -3.452  -1.190   3.688  1.00  0.00     0.171 HD
ATOM     30  C   UNL d   1      -2.156  -2.080   0.781  0.00  0.00     0.062 A 
ATOM     31  N   UNL d   1      -3.226  -3.479   2.480  0.00  0.00    -0.083 NA
ATOM     32  C   UNL d   1      -1.769  -0.808   0.354  0.00  0.00     0.102 A 
ENDBRANCH   1  24
BRANCH   5  33
ATOM     33  O   UNL d   1       0.498   2.303   1.633  0.00  0.00    -0.388 OA
ATOM     34  HO  UNL d   1       0.381   1.791   2.425  1.00  0.00     0.210 HD
ENDBRANCH   5  33
TORSDOF 12
