REMARK  3 active torsions:
REMARK  status: ('A' for Active; 'I' for Inactive)
REMARK    1  A    between atoms: C_3  and  N_17 
REMARK    2  A    between atoms: C_5  and  C_6 
REMARK    3  A    between atoms: N_7  and  N_9 
ROOT
ATOM      1  C   UNL d   1      -0.196  -0.764   0.597  0.00  0.00     0.144 C 
ATOM      2  N   UNL d   1      -0.812   0.151  -0.079  0.00  0.00    -0.303 N 
ATOM      3  HN  UNL d   1      -0.267   0.828  -0.612  1.00  0.00     0.186 HD
ENDROOT
BRANCH   2   4
ATOM      4  N   UNL d   1      -2.213   0.236  -0.097  0.00  0.00    -0.234 N 
ATOM      5  C   UNL d   1      -2.956   1.209  -0.812  0.00  0.00     0.344 A 
ATOM      6  N   UNL d   1      -4.358   1.070  -0.660  0.00  0.00    -0.276 N 
ATOM      7  O   UNL d   1      -2.425   2.109  -1.515  0.00  0.00    -0.245 OA
ATOM      8  C   UNL d   1      -4.463  -0.060   0.204  0.00  0.00     0.245 A 
ATOM      9  HN  UNL d   1      -5.103   1.636  -1.066  1.00  0.00     0.173 HD
ATOM     10  C   UNL d   1      -3.142  -0.641   0.602  0.00  0.00     0.257 A 
ATOM     11  O   UNL d   1      -5.570  -0.516   0.588  0.00  0.00    -0.271 OA
ENDBRANCH   2   4
BRANCH   1  12
ATOM     12  C   UNL d   1       1.265  -0.830   0.598  0.00  0.00     0.095 A 
ATOM     13  C   UNL d   1       2.009  -1.768   1.288  0.00  0.00     0.043 A 
ATOM     14  C   UNL d   1       3.334  -1.463   1.011  0.00  0.00     0.065 A 
ATOM     15  C   UNL d   1       3.278  -0.362   0.175  0.00  0.00     0.215 A 
ATOM     16  O   UNL d   1       2.042  -0.004  -0.056  0.00  0.00    -0.287 OA
BRANCH  15  17
ATOM     17  N   UNL d   1       4.411   0.312  -0.376  0.00  0.00    -0.090 N 
ATOM     18  O   UNL d   1       5.568  -0.078  -0.118  0.00  0.00    -0.530 OA
ATOM     19  O   UNL d   1       4.229   1.399  -1.198  0.00  0.00    -0.530 OA
ENDBRANCH  15  17
ENDBRANCH   1  12
TORSDOF 3
