REMARK  10 active torsions:
REMARK  status: ('A' for Active; 'I' for Inactive)
REMARK    1  A    between atoms: C_3  and  C_2 
REMARK    2  A    between atoms: C_3  and  C_4 
REMARK    3  A    between atoms: C_3  and  C_20 
REMARK    4  A    between atoms: C_3  and  N_28 
REMARK    5  A    between atoms: C_4  and  O_5 
REMARK    6  A    between atoms: O_5  and  C_6 
REMARK    7  A    between atoms: C_6  and  C_8 
REMARK    8  A    between atoms: C_10  and  O_18 
REMARK    9  A    between atoms: C_11  and  O_16 
REMARK   10  A    between atoms: C_12  and  O_14 
ROOT
ATOM      1  O   UNL d   1       0.457  -0.192   0.081  0.00  0.00    -0.315 OA
ENDROOT
BRANCH   1   2
ATOM      2  C   UNL d   1       1.846  -0.158   0.389  0.00  0.00     0.226 C 
BRANCH   2   3
ATOM      3  C   UNL d   1       2.594   0.815  -0.546  0.00  0.00     0.207 C 
BRANCH   3   4
ATOM      4  C   UNL d   1       2.447   0.258  -1.983  0.00  0.00     0.045 C 
ATOM      5  C   UNL d   1       3.041  -1.135  -2.160  0.00  0.00     0.008 C 
ENDBRANCH   3   4
BRANCH   3   6
ATOM      6  C   UNL d   1       4.075   0.897  -0.145  0.00  0.00    -0.018 A 
ATOM      7  C   UNL d   1       4.473   0.703   1.192  0.00  0.00     0.010 A 
ATOM      8  C   UNL d   1       5.814   0.826   1.564  0.00  0.00     0.001 A 
ATOM      9  C   UNL d   1       6.777   1.155   0.609  0.00  0.00     0.000 A 
ATOM     10  C   UNL d   1       6.398   1.367  -0.719  0.00  0.00     0.001 A 
ATOM     11  C   UNL d   1       5.057   1.245  -1.091  0.00  0.00     0.010 A 
ENDBRANCH   3   6
BRANCH   3  12
ATOM     12  N   UNL d   1       1.934   2.147  -0.482  0.00  0.00     0.096 N 
ATOM     13  C   UNL d   1       2.550   3.109  -1.392  0.00  0.00     0.310 C 
ATOM     14  C   UNL d   1       2.006   2.727   0.857  0.00  0.00     0.310 C 
ENDBRANCH   3  12
ENDBRANCH   2   3
ENDBRANCH   1   2
BRANCH   1  15
ATOM     15  C   UNL d   1      -0.431  -1.025   0.765  0.00  0.00     0.293 C 
ATOM     16  O   UNL d   1      -0.012  -1.789   1.679  0.00  0.00    -0.259 OA
BRANCH  15  17
ATOM     17  C   UNL d   1      -1.859  -1.010   0.414  0.00  0.00     0.045 A 
ATOM     18  C   UNL d   1      -2.324  -0.160  -0.590  0.00  0.00     0.057 A 
ATOM     19  C   UNL d   1      -3.683  -0.125  -0.942  0.00  0.00     0.105 A 
ATOM     20  C   UNL d   1      -4.598  -0.970  -0.264  0.00  0.00     0.135 A 
ATOM     21  C   UNL d   1      -4.128  -1.829   0.744  0.00  0.00     0.105 A 
ATOM     22  C   UNL d   1      -2.765  -1.842   1.076  0.00  0.00     0.057 A 
BRANCH  19  23
ATOM     23  O   UNL d   1      -4.121   0.736  -1.955  0.00  0.00    -0.353 OA
ATOM     24  C   UNL d   1      -3.249   1.611  -2.658  0.00  0.00     0.210 C 
ENDBRANCH  19  23
BRANCH  20  25
ATOM     25  O   UNL d   1      -5.974  -1.000  -0.545  0.00  0.00    -0.351 OA
ATOM     26  C   UNL d   1      -6.635  -0.155  -1.478  0.00  0.00     0.210 C 
ENDBRANCH  20  25
BRANCH  21  27
ATOM     27  O   UNL d   1      -5.037  -2.660   1.409  0.00  0.00    -0.353 OA
ATOM     28  C   UNL d   1      -4.652  -3.545   2.452  0.00  0.00     0.210 C 
ENDBRANCH  21  27
ENDBRANCH  15  17
ENDBRANCH   1  15
TORSDOF 10
