REMARK  8 active torsions:
REMARK  status: ('A' for Active; 'I' for Inactive)
REMARK    1  A    between atoms: O_1  and  C_3 
REMARK    2  A    between atoms: C_3  and  C_4 
REMARK    3  A    between atoms: C_6  and  O_7 
REMARK    4  A    between atoms: O_7  and  C_8 
REMARK    5  A    between atoms: C_18  and  O_19 
REMARK    6  A    between atoms: C_21  and  O_22 
REMARK    7  A    between atoms: C_24  and  O_25 
REMARK    8  A    between atoms: C_27  and  O_28 
ROOT
ATOM      1  C   UNL d   1      -2.620   1.377  -1.248  0.00  0.00     0.179 C 
ATOM      2  O   UNL d   1      -1.613   1.585  -0.267  0.00  0.00    -0.348 OA
ATOM      3  C   UNL d   1      -1.737   0.617   0.751  0.00  0.00     0.298 C 
ATOM      4  C   UNL d   1      -2.985   0.890   1.607  0.00  0.00     0.205 C 
ATOM      5  C   UNL d   1      -4.159   1.351   0.736  0.00  0.00     0.183 C 
ATOM      6  C   UNL d   1      -4.003   0.912  -0.721  0.00  0.00     0.180 C 
ENDROOT
BRANCH   3   7
ATOM      7  O   UNL d   1      -0.566   0.598   1.562  0.00  0.00    -0.315 OA
BRANCH   7   8
ATOM      8  C   UNL d   1       0.675   0.132   1.111  0.00  0.00     0.106 A 
ATOM      9  C   UNL d   1       0.831  -0.394  -0.182  0.00  0.00     0.054 A 
ATOM     10  C   UNL d   1       2.078  -0.854  -0.607  0.00  0.00     0.001 A 
ATOM     11  C   UNL d   1       2.251  -1.376  -1.886  0.00  0.00     0.020 A 
ATOM     12  C   UNL d   1       3.188  -0.794   0.260  0.00  0.00     0.092 A 
ATOM     13  C   UNL d   1       3.514  -1.825  -2.273  0.00  0.00     0.083 A 
ATOM     14  C   UNL d   1       4.572  -1.737  -1.363  0.00  0.00     0.288 A 
ATOM     15  O   UNL d   1       5.717  -2.138  -1.697  0.00  0.00    -0.260 OA
ATOM     16  O   UNL d   1       4.377  -1.232  -0.146  0.00  0.00    -0.275 OA
ATOM     17  C   UNL d   1       3.033  -0.273   1.547  0.00  0.00     0.077 A 
ATOM     18  C   UNL d   1       1.782   0.188   1.972  0.00  0.00     0.101 A 
BRANCH  18  19
ATOM     19  O   UNL d   1       1.645   0.703   3.255  0.00  0.00    -0.358 OA
ATOM     20  HO  UNL d   1       0.796   1.016   3.544  1.00  0.00     0.217 HD
ENDBRANCH  18  19
ENDBRANCH   7   8
ENDBRANCH   3   7
BRANCH   4  21
ATOM     21  O   UNL d   1      -2.719   1.871   2.565  0.00  0.00    -0.388 OA
ATOM     22  HO  UNL d   1      -3.490   2.040   3.094  1.00  0.00     0.210 HD
ENDBRANCH   4  21
BRANCH   1  23
ATOM     23  C   UNL d   1      -2.101   0.633  -2.477  0.00  0.00     0.198 C 
BRANCH  23  24
ATOM     24  O   UNL d   1      -1.655  -0.644  -2.133  0.00  0.00    -0.398 OA
ATOM     25  HO  UNL d   1      -1.332  -1.106  -2.898  1.00  0.00     0.209 HD
ENDBRANCH  23  24
ENDBRANCH   1  23
BRANCH   5  26
ATOM     26  O   UNL d   1      -5.364   0.889   1.265  0.00  0.00    -0.390 OA
ATOM     27  HO  UNL d   1      -6.092   1.174   0.725  1.00  0.00     0.210 HD
ENDBRANCH   5  26
BRANCH   6  28
ATOM     28  O   UNL d   1      -4.140  -0.477  -0.818  0.00  0.00    -0.390 OA
ATOM     29  HO  UNL d   1      -4.043  -0.751  -1.723  1.00  0.00     0.210 HD
ENDBRANCH   6  28
TORSDOF 8
