REMARK  0 active torsions:
REMARK  status: ('A' for Active; 'I' for Inactive)
ROOT
ATOM      1  C   UNL d   1       5.330  -0.075  -1.305  0.00  0.00     0.309 C 
ATOM      2  N   UNL d   1       3.903  -0.084  -1.568  0.00  0.00     0.084 N 
ATOM      3  C   UNL d   1       3.351  -1.234  -0.855  0.00  0.00     0.276 C 
ATOM      4  C   UNL d   1       1.847  -1.333  -1.099  0.00  0.00     0.065 C 
ATOM      5  C   UNL d   1       1.185  -0.037  -0.718  0.00  0.00    -0.065 C 
ATOM      6  C   UNL d   1       1.854   1.215  -1.218  0.00  0.00     0.065 C 
ATOM      7  C   UNL d   1       3.358   1.131  -0.965  0.00  0.00     0.276 C 
ATOM      8  C   UNL d   1      -0.037  -0.006  -0.133  0.00  0.00    -0.011 C 
ATOM      9  C   UNL d   1      -0.752   1.269   0.159  0.00  0.00    -0.008 A 
ATOM     10  C   UNL d   1      -0.083   2.355   0.746  0.00  0.00     0.013 A 
ATOM     11  C   UNL d   1      -0.797   3.476   1.179  0.00  0.00     0.001 A 
ATOM     12  C   UNL d   1      -2.188   3.511   1.055  0.00  0.00     0.001 A 
ATOM     13  C   UNL d   1      -2.867   2.430   0.486  0.00  0.00     0.020 A 
ATOM     14  C   UNL d   1      -2.155   1.315   0.035  0.00  0.00     0.016 A 
ATOM     15  S   UNL d   1      -3.029  -0.028  -0.776  0.00  0.00    -0.089 SA
ATOM     16  C   UNL d   1      -2.162  -1.294   0.156  0.00  0.00     0.016 A 
ATOM     17  C   UNL d   1      -2.880  -2.359   0.709  0.00  0.00     0.020 A 
ATOM     18  C   UNL d   1      -2.207  -3.385   1.376  0.00  0.00     0.001 A 
ATOM     19  C   UNL d   1      -0.816  -3.347   1.497  0.00  0.00     0.001 A 
ATOM     20  C   UNL d   1      -0.096  -2.275   0.962  0.00  0.00     0.013 A 
ATOM     21  C   UNL d   1      -0.759  -1.244   0.276  0.00  0.00    -0.008 A 
ENDROOT
TORSDOF 0
