REMARK  6 active torsions:
REMARK  status: ('A' for Active; 'I' for Inactive)
REMARK    1  A    between atoms: N_2  and  C_4 
REMARK    2  A    between atoms: C_8  and  O_14 
REMARK    3  A    between atoms: O_14  and  C_15 
REMARK    4  A    between atoms: C_15  and  C_16 
REMARK    5  A    between atoms: C_19  and  O_20 
REMARK    6  A    between atoms: O_20  and  C_21 
ROOT
ATOM      1  C   UNL d   1      -3.614  -1.518   1.058  0.00  0.00     0.192 A 
ATOM      2  C   UNL d   1      -2.263  -1.837   1.025  0.00  0.00     0.149 A 
ATOM      3  N   UNL d   1      -1.968  -1.994  -0.273  0.00  0.00    -0.317 N 
ATOM      4  C   UNL d   1      -0.697  -2.373  -0.879  0.00  0.00     0.166 C 
ATOM      5  C   UNL d   1      -0.680  -1.975  -2.366  0.00  0.00     0.164 C 
ATOM      6  C   UNL d   1      -1.996  -2.387  -3.052  0.00  0.00     0.212 C 
ATOM      7  O   UNL d   1      -3.134  -1.878  -2.349  0.00  0.00    -0.319 OA
ATOM      8  C   UNL d   1      -3.100  -1.795  -0.959  0.00  0.00     0.227 A 
ATOM      9  N   UNL d   1      -4.153  -1.486  -0.183  0.00  0.00    -0.302 N 
ATOM     10  HN  UNL d   1      -5.113  -1.280  -0.458  1.00  0.00     0.171 HD
ENDROOT
BRANCH   5  11
ATOM     11  O   UNL d   1      -0.499  -0.594  -2.486  0.00  0.00    -0.378 OA
BRANCH  11  12
ATOM     12  C   UNL d   1       0.804  -0.439  -2.966  0.00  0.00     0.207 C 
BRANCH  12  13
ATOM     13  C   UNL d   1       1.561   0.480  -2.073  0.00  0.00    -0.034 A 
ATOM     14  C   UNL d   1       1.548   1.857  -2.312  0.00  0.00     0.012 A 
ATOM     15  C   UNL d   1       2.233   2.723  -1.453  0.00  0.00     0.037 A 
ATOM     16  C   UNL d   1       2.929   2.220  -0.349  0.00  0.00     0.078 A 
ATOM     17  C   UNL d   1       2.931   0.836  -0.109  0.00  0.00     0.037 A 
ATOM     18  C   UNL d   1       2.248  -0.030  -0.967  0.00  0.00     0.012 A 
BRANCH  16  19
ATOM     19  O   UNL d   1       3.604   3.117   0.489  0.00  0.00    -0.255 OA
BRANCH  19  20
ATOM     20  C   UNL d   1       4.347   2.728   1.642  0.00  0.00     0.530 C 
ATOM     21  F   UNL d   1       3.520   2.090   2.549  0.00  0.00    -0.144 F 
ATOM     22  F   UNL d   1       5.380   1.883   1.278  0.00  0.00    -0.144 F 
ATOM     23  F   UNL d   1       4.880   3.856   2.237  0.00  0.00    -0.144 F 
ENDBRANCH  19  20
ENDBRANCH  16  19
ENDBRANCH  12  13
ENDBRANCH  11  12
ENDBRANCH   5  11
BRANCH   1  24
ATOM     24  N   UNL d   1      -4.365  -1.252   2.245  0.00  0.00    -0.096 N 
ATOM     25  O   UNL d   1      -5.704  -0.954   2.159  0.00  0.00    -0.530 OA
ATOM     26  O   UNL d   1      -3.812  -1.281   3.364  0.00  0.00    -0.530 OA
ENDBRANCH   1  24
TORSDOF 6
