REMARK  6 active torsions:
REMARK  status: ('A' for Active; 'I' for Inactive)
REMARK    1  A    between atoms: C_2  and  C_3 
REMARK    2  A    between atoms: C_2  and  C_14 
REMARK    3  A    between atoms: C_2  and  N_17 
REMARK    4  A    between atoms: C_3  and  C_4 
REMARK    5  A    between atoms: C_7  and  O_12 
REMARK    6  A    between atoms: C_8  and  O_10 
ROOT
ATOM      1  C   UNL d   1       0.299   0.253   0.722  0.00  0.00    -0.052 A 
ATOM      2  C   UNL d   1       0.507  -1.117   0.919  0.00  0.00     0.010 A 
ATOM      3  C   UNL d   1       1.668  -1.727   0.436  0.00  0.00     0.040 A 
ATOM      4  C   UNL d   1       2.625  -0.970  -0.246  0.00  0.00     0.098 A 
ATOM      5  C   UNL d   1       2.420   0.402  -0.445  0.00  0.00     0.099 A 
ATOM      6  C   UNL d   1       1.258   1.010   0.040  0.00  0.00     0.046 A 
ENDROOT
BRANCH   1   7
ATOM      7  C   UNL d   1      -0.949   0.904   1.233  0.00  0.00     0.088 C 
BRANCH   7   8
ATOM      8  C   UNL d   1      -2.092   0.935   0.211  0.00  0.00     0.210 C 
ATOM      9  C   UNL d   1      -3.260   1.679   0.830  0.00  0.00     0.058 C 
BRANCH   8  10
ATOM     10  C   UNL d   1      -2.533  -0.459  -0.151  0.00  0.00     0.210 C 
ATOM     11  O   UNL d   1      -3.002  -1.225   0.733  0.00  0.00    -0.646 OA
ATOM     12  O   UNL d   1      -2.410  -0.923  -1.456  0.00  0.00    -0.646 OA
ENDBRANCH   8  10
BRANCH   8  13
ATOM     13  N   UNL d   1      -1.672   1.659  -0.980  0.00  0.00    -0.060 N 
ATOM     14  HN3 UNL d   1      -2.436   1.810  -1.639  1.00  0.00     0.275 HD
ATOM     15  HN2 UNL d   1      -1.459   2.638  -0.791  1.00  0.00     0.275 HD
ATOM     16  HN1 UNL d   1      -0.887   1.159  -1.397  1.00  0.00     0.275 HD
ENDBRANCH   8  13
ENDBRANCH   7   8
ENDBRANCH   1   7
BRANCH   5  17
ATOM     17  O   UNL d   1       3.365   1.163  -1.121  0.00  0.00    -0.358 OA
ATOM     18  HO  UNL d   1       3.226   2.093  -1.255  1.00  0.00     0.217 HD
ENDBRANCH   5  17
BRANCH   4  19
ATOM     19  O   UNL d   1       3.776  -1.585  -0.724  0.00  0.00    -0.358 OA
ATOM     20  HO  UNL d   1       4.427  -1.070  -1.187  1.00  0.00     0.217 HD
ENDBRANCH   4  19
TORSDOF 6
