REMARK  14 active torsions:
REMARK  status: ('A' for Active; 'I' for Inactive)
REMARK    1  A    between atoms: C_4  and  O_5 
REMARK    2  A    between atoms: C_6  and  O_5 
REMARK    3  A    between atoms: C_7  and  O_8 
REMARK    4  A    between atoms: C_10  and  O_11 
REMARK    5  A    between atoms: C_13  and  C_14 
REMARK    6  A    between atoms: C_14  and  O_15 
REMARK    7  A    between atoms: C_18  and  C_19 
REMARK    8  A    between atoms: C_20  and  O_21 
REMARK    9  A    between atoms: C_24  and  O_25 
REMARK   10  A    between atoms: C_30  and  C_34 
REMARK   11  A    between atoms: C_37  and  O_38 
REMARK   12  A    between atoms: C_42  and  O_43 
REMARK   13  A    between atoms: C_45  and  O_46 
REMARK   14  A    between atoms: C_48  and  O_49 
ROOT
ATOM      1  C   UNL d   1      -1.355  -1.444  -0.119  0.00  0.00     0.189 C 
ATOM      2  C   UNL d   1      -1.974  -2.420  -1.123  0.00  0.00     0.181 C 
ATOM      3  C   UNL d   1      -0.910  -3.254  -1.839  0.00  0.00     0.180 C 
ATOM      4  C   UNL d   1       0.083  -3.806  -0.812  0.00  0.00     0.177 C 
ATOM      5  O   UNL d   1       0.687  -2.742  -0.120  0.00  0.00    -0.368 OA
ATOM      6  C   UNL d   1      -0.296  -2.183   0.718  0.00  0.00     0.192 C 
ENDROOT
BRANCH   6   7
ATOM      7  C   UNL d   1       0.351  -1.270   1.726  0.00  0.00     0.041 A 
ATOM      8  C   UNL d   1       0.089  -1.462   3.090  0.00  0.00     0.080 A 
ATOM      9  C   UNL d   1       0.668  -0.624   4.042  0.00  0.00     0.074 A 
ATOM     10  C   UNL d   1       1.515   0.417   3.657  0.00  0.00     0.085 A 
ATOM     11  C   UNL d   1       1.791   0.632   2.288  0.00  0.00     0.082 A 
ATOM     12  C   UNL d   1       1.196  -0.218   1.322  0.00  0.00     0.104 A 
ATOM     13  C   UNL d   1       2.631   1.664   1.825  0.00  0.00     0.190 A 
ATOM     14  O   UNL d   1       1.431  -0.024   0.026  0.00  0.00    -0.308 OA
ATOM     15  C   UNL d   1       2.215   0.944  -0.438  0.00  0.00     0.090 A 
ATOM     16  C   UNL d   1       2.842   1.817   0.457  0.00  0.00     0.094 A 
ATOM     17  O   UNL d   1       3.198   2.460   2.620  0.00  0.00    -0.287 OA
BRANCH   8  18
ATOM     18  O   UNL d   1      -0.750  -2.487   3.512  0.00  0.00    -0.360 OA
ATOM     19  HO  UNL d   1      -0.928  -2.617   4.436  1.00  0.00     0.217 HD
ENDBRANCH   8  18
BRANCH  10  20
ATOM     20  O   UNL d   1       2.067   1.224   4.646  0.00  0.00    -0.360 OA
ATOM     21  HO  UNL d   1       2.643   1.932   4.384  1.00  0.00     0.217 HD
ENDBRANCH  10  20
BRANCH  15  22
ATOM     22  C   UNL d   1       2.407   1.084  -1.895  0.00  0.00    -0.002 A 
ATOM     23  C   UNL d   1       3.230   2.091  -2.426  0.00  0.00     0.017 A 
ATOM     24  C   UNL d   1       3.398   2.212  -3.809  0.00  0.00     0.037 A 
ATOM     25  C   UNL d   1       2.744   1.329  -4.672  0.00  0.00     0.065 A 
ATOM     26  C   UNL d   1       1.922   0.325  -4.153  0.00  0.00     0.037 A 
ATOM     27  C   UNL d   1       1.754   0.203  -2.771  0.00  0.00     0.017 A 
BRANCH  25  28
ATOM     28  O   UNL d   1       2.910   1.449  -6.045  0.00  0.00    -0.361 OA
ATOM     29  HO  UNL d   1       2.465   0.849  -6.632  1.00  0.00     0.217 HD
ENDBRANCH  25  28
ENDBRANCH  15  22
ENDBRANCH   6   7
BRANCH   1  30
ATOM     30  O   UNL d   1      -2.364  -0.951   0.718  0.00  0.00    -0.348 OA
BRANCH  30  31
ATOM     31  C   UNL d   1      -2.374   0.433   0.521  0.00  0.00     0.292 C 
ATOM     32  O   UNL d   1      -2.026   1.081   1.728  0.00  0.00    -0.351 OA
ATOM     33  C   UNL d   1      -1.860   2.471   1.492  0.00  0.00     0.152 C 
ATOM     34  C   UNL d   1      -0.573   2.776   0.742  0.00  0.00     0.042 C 
ATOM     35  C   UNL d   1      -3.069   3.137   0.819  0.00  0.00     0.178 C 
ATOM     36  C   UNL d   1      -4.227   2.151   0.703  0.00  0.00     0.183 C 
ATOM     37  C   UNL d   1      -3.761   0.863   0.016  0.00  0.00     0.204 C 
BRANCH  35  38
ATOM     38  O   UNL d   1      -3.461   4.251   1.562  0.00  0.00    -0.390 OA
ATOM     39  HO  UNL d   1      -2.740   4.865   1.635  1.00  0.00     0.210 HD
ENDBRANCH  35  38
BRANCH  36  40
ATOM     40  O   UNL d   1      -5.295   2.725   0.009  0.00  0.00    -0.390 OA
ATOM     41  HO  UNL d   1      -5.584   3.523   0.434  1.00  0.00     0.210 HD
ENDBRANCH  36  40
BRANCH  37  42
ATOM     42  O   UNL d   1      -3.699   1.044  -1.367  0.00  0.00    -0.388 OA
ATOM     43  HO  UNL d   1      -4.557   1.310  -1.679  1.00  0.00     0.210 HD
ENDBRANCH  37  42
ENDBRANCH  30  31
ENDBRANCH   1  30
BRANCH   4  44
ATOM     44  C   UNL d   1       1.159  -4.621  -1.510  0.00  0.00     0.198 C 
BRANCH  44  45
ATOM     45  O   UNL d   1       1.969  -5.248  -0.562  0.00  0.00    -0.398 OA
ATOM     46  HO  UNL d   1       2.641  -5.758  -0.998  1.00  0.00     0.209 HD
ENDBRANCH  44  45
ENDBRANCH   4  44
BRANCH   2  47
ATOM     47  O   UNL d   1      -2.731  -1.720  -2.062  0.00  0.00    -0.390 OA
ATOM     48  HO  UNL d   1      -3.115  -2.325  -2.685  1.00  0.00     0.210 HD
ENDBRANCH   2  47
BRANCH   3  49
ATOM     49  O   UNL d   1      -1.533  -4.306  -2.516  0.00  0.00    -0.390 OA
ATOM     50  HO  UNL d   1      -0.872  -4.823  -2.960  1.00  0.00     0.210 HD
ENDBRANCH   3  49
TORSDOF 14
