REMARK  2 active torsions:
REMARK  status: ('A' for Active; 'I' for Inactive)
REMARK    1  A    between atoms: C_4  and  C_2 
REMARK    2  A    between atoms: C_25  and  C_28 
ROOT
ATOM      1  C   UNL d   1      -1.703   0.176   0.366  0.00  0.00     0.158 C 
ATOM      2  C   UNL d   1      -2.023  -0.865  -0.694  0.00  0.00     0.169 C 
ATOM      3  C   UNL d   1      -0.717  -1.549  -1.102  0.00  0.00     0.041 C 
ATOM      4  C   UNL d   1       0.255  -1.112  -0.033  0.00  0.00     0.004 C 
ATOM      5  C   UNL d   1      -0.154   0.284   0.394  0.00  0.00     0.001 C 
ATOM      6  C   UNL d   1       0.477   0.613   1.766  0.00  0.00     0.013 C 
ATOM      7  C   UNL d   1       1.875  -0.018   1.981  0.00  0.00     0.007 C 
ATOM      8  C   UNL d   1       2.567  -0.344   0.645  0.00  0.00     0.002 C 
ATOM      9  C   UNL d   1       1.763  -1.358  -0.190  0.00  0.00    -0.004 C 
ATOM     10  C   UNL d   1       2.267  -1.305  -1.625  0.00  0.00     0.010 C 
ATOM     11  C   UNL d   1       3.726  -1.760  -1.662  0.00  0.00     0.035 C 
ATOM     12  C   UNL d   1       4.573  -0.993  -0.682  0.00  0.00    -0.068 C 
ATOM     13  C   UNL d   1       5.824  -0.689  -1.042  0.00  0.00     0.053 C 
ATOM     14  C   UNL d   1       6.745  -0.010  -0.121  0.00  0.00     0.149 C 
ATOM     15  O   UNL d   1       7.904   0.293  -0.507  0.00  0.00    -0.293 OA
ATOM     16  C   UNL d   1       6.335   0.268   1.290  0.00  0.00     0.084 C 
ATOM     17  C   UNL d   1       4.820   0.452   1.373  0.00  0.00     0.022 C 
ATOM     18  C   UNL d   1       4.056  -0.720   0.731  0.00  0.00    -0.016 C 
ATOM     19  C   UNL d   1       4.236  -1.973   1.585  0.00  0.00     0.020 C 
ATOM     20  C   UNL d   1       0.343   1.319  -0.625  0.00  0.00     0.019 C 
ATOM     21  O   UNL d   1      -2.562  -0.175  -1.776  0.00  0.00    -0.342 OA
ATOM     22  C   UNL d   1      -2.998   1.059  -1.251  0.00  0.00     0.191 C 
ATOM     23  O   UNL d   1      -2.299   1.370  -0.063  0.00  0.00    -0.329 OA
ATOM     24  C   UNL d   1      -2.709   2.142  -2.275  0.00  0.00     0.085 C 
ENDROOT
BRANCH  22  25
ATOM     25  C   UNL d   1      -4.488   1.028  -0.991  0.00  0.00     0.003 A 
ATOM     26  C   UNL d   1      -5.330   0.208  -1.760  0.00  0.00     0.012 A 
ATOM     27  C   UNL d   1      -6.710   0.209  -1.544  0.00  0.00     0.001 A 
ATOM     28  C   UNL d   1      -7.264   1.038  -0.565  0.00  0.00     0.000 A 
ATOM     29  C   UNL d   1      -6.438   1.870   0.195  0.00  0.00     0.001 A 
ATOM     30  C   UNL d   1      -5.057   1.870  -0.021  0.00  0.00     0.012 A 
ENDBRANCH  22  25
BRANCH   1  31
ATOM     31  C   UNL d   1      -2.299  -0.250   1.698  0.00  0.00     0.161 C 
ATOM     32  C   UNL d   1      -2.070  -1.624   2.244  0.00  0.00     0.094 C 
ATOM     33  O   UNL d   1      -2.942   0.545   2.365  0.00  0.00    -0.295 OA
ENDBRANCH   1  31
TORSDOF 2
