REMARK  11 active torsions:
REMARK  status: ('A' for Active; 'I' for Inactive)
REMARK    1  A    between atoms: C_3  and  O_42 
REMARK    2  A    between atoms: C_4  and  N_44 
REMARK    3  A    between atoms: C_6  and  O_8 
REMARK    4  A    between atoms: C_9  and  O_8 
REMARK    5  A    between atoms: C_11  and  C_35 
REMARK    6  A    between atoms: C_11  and  O_40 
REMARK    7  A    between atoms: C_15  and  O_33 
REMARK    8  A    between atoms: C_18  and  O_19 
REMARK    9  A    between atoms: C_27  and  O_31 
REMARK   10  A    between atoms: C_35  and  C_37 
REMARK   11  A    between atoms: C_37  and  O_38 
ROOT
ATOM      1  C   UNL d   1       1.844  -0.702   0.399  0.00  0.00     0.164 C 
ATOM      2  C   UNL d   1       2.310  -2.049   0.989  0.00  0.00     0.083 C 
ATOM      3  C   UNL d   1       1.522  -3.298   0.534  0.00  0.00     0.127 C 
ATOM      4  C   UNL d   1       0.613  -3.024  -0.674  0.00  0.00     0.088 C 
ATOM      5  C   UNL d   1      -0.237  -1.813  -0.424  0.00  0.00    -0.009 A 
ATOM      6  C   UNL d   1       0.361  -0.685   0.142  0.00  0.00     0.014 A 
ATOM      7  C   UNL d   1      -0.408   0.450   0.426  0.00  0.00     0.090 A 
ATOM      8  C   UNL d   1      -1.792   0.470   0.125  0.00  0.00     0.066 A 
ATOM      9  C   UNL d   1      -2.391  -0.672  -0.464  0.00  0.00     0.066 A 
ATOM     10  C   UNL d   1      -1.600  -1.814  -0.733  0.00  0.00     0.088 A 
ATOM     11  C   UNL d   1      -3.844  -0.652  -0.786  0.00  0.00     0.197 A 
ATOM     12  O   UNL d   1      -4.398  -1.656  -1.311  0.00  0.00    -0.286 OA
ATOM     13  C   UNL d   1      -4.658   0.544  -0.496  0.00  0.00     0.032 A 
ATOM     14  C   UNL d   1      -6.024   0.535  -0.811  0.00  0.00     0.017 A 
ATOM     15  C   UNL d   1      -6.820   1.647  -0.551  0.00  0.00     0.004 A 
ATOM     16  C   UNL d   1      -6.257   2.781   0.026  0.00  0.00     0.038 A 
ATOM     17  C   UNL d   1      -4.892   2.819   0.353  0.00  0.00     0.083 A 
ATOM     18  C   UNL d   1      -4.077   1.688   0.090  0.00  0.00     0.062 A 
ATOM     19  C   UNL d   1      -2.625   1.673   0.416  0.00  0.00     0.200 A 
ATOM     20  O   UNL d   1      -2.096   2.689   0.943  0.00  0.00    -0.286 OA
ENDROOT
BRANCH   1  21
ATOM     21  O   UNL d   1       2.530  -0.452  -0.805  0.00  0.00    -0.351 OA
BRANCH  21  22
ATOM     22  C   UNL d   1       3.519   0.530  -0.584  0.00  0.00     0.263 C 
ATOM     23  C   UNL d   1       2.924   1.931  -0.376  0.00  0.00     0.096 C 
ATOM     24  C   UNL d   1       3.927   2.872   0.301  0.00  0.00     0.219 C 
ATOM     25  C   UNL d   1       5.373   2.451   0.026  0.00  0.00     0.177 C 
ATOM     26  C   UNL d   1       5.589   0.944   0.340  0.00  0.00     0.151 C 
ATOM     27  C   UNL d   1       6.623   0.255  -0.541  0.00  0.00     0.042 C 
ATOM     28  O   UNL d   1       4.405   0.175   0.458  0.00  0.00    -0.354 OA
BRANCH  24  29
ATOM     29  N   UNL d   1       3.682   2.901   1.733  0.00  0.00    -0.072 N 
ATOM     30  HN3 UNL d   1       3.914   2.013   2.179  1.00  0.00     0.274 HD
ATOM     31  HN2 UNL d   1       4.353   3.493   2.224  1.00  0.00     0.274 HD
ATOM     32  HN1 UNL d   1       2.719   3.181   1.917  1.00  0.00     0.274 HD
ENDBRANCH  24  29
BRANCH  25  33
ATOM     33  O   UNL d   1       5.692   2.745  -1.304  0.00  0.00    -0.391 OA
ATOM     34  HO  UNL d   1       5.560   3.666  -1.496  1.00  0.00     0.210 HD
ENDBRANCH  25  33
ENDBRANCH  21  22
ENDBRANCH   1  21
BRANCH   7  35
ATOM     35  O   UNL d   1       0.212   1.549   1.015  0.00  0.00    -0.359 OA
ATOM     36  HO  UNL d   1      -0.309   2.319   1.207  1.00  0.00     0.217 HD
ENDBRANCH   7  35
BRANCH   3  37
ATOM     37  C   UNL d   1       2.494  -4.412   0.197  0.00  0.00     0.184 C 
ATOM     38  O   UNL d   1       2.481  -5.440   0.857  0.00  0.00    -0.292 OA
BRANCH  37  39
ATOM     39  C   UNL d   1       3.501  -4.320  -0.922  0.00  0.00     0.245 C 
BRANCH  39  40
ATOM     40  O   UNL d   1       3.415  -3.111  -1.613  0.00  0.00    -0.393 OA
ATOM     41  HO  UNL d   1       4.049  -3.053  -2.318  1.00  0.00     0.209 HD
ENDBRANCH  39  40
ENDBRANCH  37  39
ENDBRANCH   3  37
BRANCH   3  42
ATOM     42  O   UNL d   1       0.711  -3.699   1.602  0.00  0.00    -0.382 OA
ATOM     43  HO  UNL d   1       0.226  -4.467   1.322  1.00  0.00     0.211 HD
ENDBRANCH   3  42
BRANCH  10  44
ATOM     44  O   UNL d   1      -2.159  -2.956  -1.301  0.00  0.00    -0.359 OA
ATOM     45  HO  UNL d   1      -3.085  -2.957  -1.511  1.00  0.00     0.217 HD
ENDBRANCH  10  44
BRANCH  17  46
ATOM     46  O   UNL d   1      -4.344   3.970   0.934  0.00  0.00    -0.355 OA
ATOM     47  C   UNL d   1      -5.108   5.135   1.219  0.00  0.00     0.210 C 
ENDBRANCH  17  46
TORSDOF 11
