REMARK  23 active torsions:
REMARK  status: ('A' for Active; 'I' for Inactive)
REMARK    1  A    between atoms: CG_2  and  CB_4 
REMARK    2  A    between atoms: CA_5  and  CB_4 
REMARK    3  A    between atoms: CA_5  and  N_6 
REMARK    4  A    between atoms: CA_5  and  C_10 
REMARK       I    between atoms: C_10  and  N_12 
REMARK    5  A    between atoms: C_14  and  N_12 
REMARK    6  A    between atoms: C_15  and  O_16 
REMARK    7  A    between atoms: C_38  and  O_39 
REMARK    8  A    between atoms: C_40  and  O_39 
REMARK    9  A    between atoms: C_42  and  C_43 
REMARK   10  A    between atoms: C_43  and  O_44 
REMARK   11  A    between atoms: C_46  and  O_47 
REMARK   12  A    between atoms: C_49  and  O_50 
REMARK   13  A    between atoms: C_52  and  O_53 
REMARK   14  A    between atoms: C_54  and  O_53 
REMARK   15  A    between atoms: C_56  and  N_58 
REMARK   16  A    between atoms: C_62  and  O_63 
REMARK   17  A    between atoms: C_74  and  O_75 
REMARK   18  A    between atoms: C_90  and  O_91 
REMARK   19  A    between atoms: C_96  and  O_97 
REMARK   20  A    between atoms: C_100  and  O_101 
REMARK   21  A    between atoms: C_105  and  C_108 
REMARK   22  A    between atoms: CA_113  and  CB_114 
REMARK   23  A    between atoms: CB_114  and  CG_115 
ROOT
ATOM      1  C   UNK d   2       5.555   5.088   2.055  0.00  0.00     0.210 C 
ATOM      2  C   UNK d   2       6.556   3.940   2.251  0.00  0.00     0.183 C 
ATOM      3  C   UNK d   2       6.101   2.657   1.620  0.00  0.00    -0.025 A 
ATOM      4  C   UNK d   2       6.210   2.452   0.238  0.00  0.00     0.012 A 
ATOM      5  C   UNK d   2       5.658   1.311  -0.347  0.00  0.00     0.040 A 
ATOM      6  C   UNK d   2       4.983   0.375   0.441  0.00  0.00     0.098 A 
ATOM      7  O   UNK d   2       4.330  -0.694  -0.184  0.00  0.00    -0.306 OA
ATOM      8  C   UNK d   2       2.935  -0.827  -0.194  0.00  0.00     0.113 A 
ATOM      9  C   UNK d   2       2.124   0.215   0.294  0.00  0.00     0.050 A 
ATOM     10  C   UNK d   2       0.730   0.129   0.251  0.00  0.00    -0.021 A 
ATOM     11  C   UNK d   2       0.153  -1.033  -0.256  0.00  0.00     0.050 A 
ATOM     12  C   UNK d   2       0.932  -2.086  -0.757  0.00  0.00     0.113 A 
ATOM     13  O   UNK d   2       0.321  -3.230  -1.304  0.00  0.00    -0.306 OA
ATOM     14  C   UNK d   2      -1.052  -3.485  -1.176  0.00  0.00     0.098 A 
ATOM     15  C   UNK d   2      -1.682  -3.335   0.065  0.00  0.00     0.040 A 
ATOM     16  C   UNK d   2      -1.820  -3.813  -2.304  0.00  0.00     0.068 A 
ATOM     17 CL   UNK d   2      -1.063  -4.076  -3.861  0.00  0.00    -0.081 Cl
ATOM     18  C   UNK d   2      -0.159   1.236   0.783  0.00  0.00     0.210 C 
ATOM     19  N   UNK d   2       0.569   2.486   0.989  0.00  0.00    -0.342 N 
ATOM     20  HN  UNK d   2       0.642   3.149   0.217  1.00  0.00     0.163 HD
ATOM     21  C   UNK d   2       4.236   4.805   2.718  0.00  0.00     0.244 C 
ATOM     22  O   UNK d   2       4.076   5.114   3.930  0.00  0.00    -0.271 OA
ATOM     23  C   UNK d   2       2.330  -1.978  -0.743  0.00  0.00     0.139 A 
ATOM     24  C   UNK d   2       4.928   0.547   1.838  0.00  0.00     0.068 A 
ATOM     25 CL   UNK d   2       4.165  -0.643   2.880  0.00  0.00    -0.081 Cl
ATOM     26  C   UNK d   2       5.472   1.697   2.414  0.00  0.00     0.036 A 
ATOM     27  C   UNK d   6      -3.069  -3.372   0.159  0.00  0.00     0.012 A 
ATOM     28  C   UNK d   6      -3.849  -3.572  -0.986  0.00  0.00    -0.025 A 
ATOM     29  C   UNK d   6      -3.218  -3.819  -2.214  0.00  0.00     0.036 A 
ATOM     30  C   UNK d   6      -5.333  -3.331  -0.940  0.00  0.00     0.183 C 
ATOM     31  C   UNK d   6      -5.739  -2.003  -1.624  0.00  0.00     0.210 C 
ATOM     32  N   UNK d   6      -4.748  -0.922  -1.546  0.00  0.00    -0.343 N 
ATOM     33  HN  UNK d   6      -4.351  -0.599  -2.429  1.00  0.00     0.163 HD
ATOM     34  C   UNK d   6      -7.126  -1.523  -1.298  0.00  0.00     0.244 C 
ATOM     35  O   UNK d   6      -8.079  -1.811  -2.071  0.00  0.00    -0.271 OA
ATOM     36  C   UNK d   5      -4.281  -0.274  -0.353  0.00  0.00     0.245 C 
ATOM     37  O   UNK d   5      -4.415  -0.827   0.773  0.00  0.00    -0.271 OA
ATOM     38  C   UNK d   5      -3.822   1.155  -0.439  0.00  0.00     0.210 C 
ATOM     39  N   UNK d   5      -2.663   1.367   0.424  0.00  0.00    -0.342 N 
ATOM     40  HN  UNK d   5      -2.799   1.439   1.433  1.00  0.00     0.163 HD
ATOM     41  C   UNK d   5      -4.980   2.056  -0.090  0.00  0.00    -0.025 A 
ATOM     42  C   UNK d   5      -4.934   2.999   0.947  0.00  0.00     0.012 A 
ATOM     43  C   UNK d   5      -6.086   3.714   1.300  0.00  0.00     0.038 A 
ATOM     44  C   UNK d   5      -7.299   3.471   0.641  0.00  0.00     0.076 A 
ATOM     45  C   UNK d   5      -7.350   2.522  -0.394  0.00  0.00     0.011 A 
ATOM     46  C   UNK d   5      -6.185   1.860  -0.769  0.00  0.00     0.025 A 
ATOM     47  C   UNK d   5      -8.611   2.115  -1.049  0.00  0.00     0.019 A 
ATOM     48  C   UNK d   5      -9.191   2.957  -2.018  0.00  0.00     0.080 A 
ATOM     49  C   UNK d   5     -10.312   2.535  -2.736  0.00  0.00     0.074 A 
ATOM     50  C   UNK d   5     -10.859   1.273  -2.508  0.00  0.00     0.069 A 
ATOM     51  C   UNK d   5     -10.295   0.429  -1.551  0.00  0.00     0.047 A 
ATOM     52  C   UNK d   5      -9.177   0.834  -0.805  0.00  0.00    -0.009 A 
ATOM     53  C   UNK d   5      -8.609  -0.088   0.261  0.00  0.00     0.220 C 
ATOM     54  N   UNK d   5      -7.352  -0.732  -0.123  0.00  0.00    -0.341 N 
ATOM     55  HN  UNK d   5      -6.559  -0.607   0.507  1.00  0.00     0.163 HD
ATOM     56  C   UNK d   4      -1.342   1.475  -0.113  0.00  0.00     0.246 C 
ATOM     57  O   UNK d   4      -1.169   1.727  -1.338  0.00  0.00    -0.271 OA
ATOM     58  C   ASN d   3       1.182   2.806   2.242  0.00  0.00     0.241 C 
ATOM     59  O   ASN d   3       1.167   1.970   3.187  0.00  0.00    -0.271 OA
ATOM     60  CA  ASN d   3       1.812   4.146   2.470  0.00  0.00     0.185 C 
ATOM     61  N   ASN d   3       3.187   4.151   1.995  0.00  0.00    -0.345 N 
ATOM     62  HN  ASN d   3       3.410   3.674   1.122  1.00  0.00     0.163 HD
ENDROOT
BRANCH  23  63
ATOM     63  O   UNK d   2       3.076  -3.000  -1.339  0.00  0.00    -0.312 OA
BRANCH  63  64
ATOM     64  C   UNK d   2       4.095  -3.736  -0.670  0.00  0.00     0.298 C 
ATOM     65  O   UNK d   2       5.349  -3.072  -0.773  0.00  0.00    -0.348 OA
ATOM     66  C   UNK d   2       6.152  -3.498  -1.866  0.00  0.00     0.179 C 
ATOM     67  C   UNK d   2       5.348  -4.002  -3.078  0.00  0.00     0.180 C 
ATOM     68  C   UNK d   2       4.499  -5.212  -2.683  0.00  0.00     0.183 C 
ATOM     69  C   UNK d   2       4.099  -5.184  -1.202  0.00  0.00     0.211 C 
BRANCH  66  70
ATOM     70  C   UNK d   2       7.089  -2.363  -2.254  0.00  0.00     0.198 C 
BRANCH  70  71
ATOM     71  O   UNK d   2       8.320  -2.883  -2.646  0.00  0.00    -0.398 OA
ATOM     72  HO  UNK d   2       8.904  -2.174  -2.888  1.00  0.00     0.209 HD
ENDBRANCH  70  71
ENDBRANCH  66  70
BRANCH  67  73
ATOM     73  O   UNK d   2       6.191  -4.353  -4.134  0.00  0.00    -0.390 OA
ATOM     74  HO  UNK d   2       5.695  -4.664  -4.882  1.00  0.00     0.210 HD
ENDBRANCH  67  73
BRANCH  68  75
ATOM     75  O   UNK d   2       3.356  -5.261  -3.482  0.00  0.00    -0.390 OA
ATOM     76  HO  UNK d   2       2.829  -6.012  -3.236  1.00  0.00     0.210 HD
ENDBRANCH  68  75
BRANCH  69  77
ATOM     77  O   UNK d   2       4.986  -5.991  -0.471  0.00  0.00    -0.348 OA
BRANCH  77  78
ATOM     78  C   UNK d   2       4.297  -6.422   0.671  0.00  0.00     0.263 C 
ATOM     79  C   UNK d   2       3.397  -7.625   0.352  0.00  0.00     0.102 C 
ATOM     80  C   UNK d   2       2.875  -8.296   1.632  0.00  0.00     0.152 C 
ATOM     81  C   UNK d   2       3.601  -9.618   1.819  0.00  0.00     0.049 C 
ATOM     82  C   UNK d   2       3.099  -7.410   2.874  0.00  0.00     0.182 C 
ATOM     83  C   UNK d   2       4.563  -6.891   2.922  0.00  0.00     0.151 C 
ATOM     84  C   UNK d   2       4.745  -5.636   3.763  0.00  0.00     0.042 C 
ATOM     85  O   UNK d   2       5.222  -6.777   1.670  0.00  0.00    -0.354 OA
BRANCH  80  86
ATOM     86  N   UNK d   2       1.456  -8.575   1.476  0.00  0.00    -0.068 N 
ATOM     87  HN3 UNK d   2       0.921  -7.742   1.229  1.00  0.00     0.275 HD
ATOM     88  HN2 UNK d   2       1.258  -9.125   0.640  1.00  0.00     0.275 HD
ATOM     89  HN1 UNK d   2       1.110  -9.021   2.326  1.00  0.00     0.275 HD
ENDBRANCH  80  86
BRANCH  82  90
ATOM     90  O   UNK d   2       2.196  -6.335   2.873  0.00  0.00    -0.390 OA
ATOM     91  HO  UNK d   2       2.334  -5.790   3.639  1.00  0.00     0.210 HD
ENDBRANCH  82  90
ENDBRANCH  77  78
ENDBRANCH  69  77
ENDBRANCH  63  64
ENDBRANCH  23  63
BRANCH  60  92
ATOM     92  CB  ASN d   3       1.023   5.249   1.776  0.00  0.00     0.134 C 
BRANCH  92  93
ATOM     93  CG  ASN d   3       0.979   6.484   2.610  0.00  0.00     0.233 C 
ATOM     94  ND2 ASN d   3      -0.266   6.937   3.134  0.00  0.00    -0.062 NA
ATOM     95  OD1 ASN d   3       2.033   7.132   2.847  0.00  0.00    -0.277 OA
ENDBRANCH  92  93
ENDBRANCH  60  92
BRANCH  30  96
ATOM     96  O   UNK d   6      -5.821  -3.406   0.370  0.00  0.00    -0.388 OA
ATOM     97  HO  UNK d   6      -6.758  -3.254   0.399  1.00  0.00     0.210 HD
ENDBRANCH  30  96
BRANCH   2  98
ATOM     98  O   UNK d   2       7.817   4.308   1.777  0.00  0.00    -0.388 OA
ATOM     99  HO  UNK d   2       8.436   3.597   1.898  1.00  0.00     0.210 HD
ENDBRANCH   2  98
BRANCH   1 100
ATOM    100  N   UNK d   2       5.377   5.397   0.640  0.00  0.00    -0.343 N 
ATOM    101  C   LEU d   1       4.753   6.600   0.180  0.00  0.00     0.249 C 
ATOM    102  O   LEU d   1       4.411   7.495   0.998  0.00  0.00    -0.271 OA
ATOM    103  HN  UNK d   2       5.711   4.726  -0.052  1.00  0.00     0.163 HD
BRANCH 101 104
ATOM    104  CA  LEU d   1       4.548   6.831  -1.286  0.00  0.00     0.275 C 
BRANCH 104 105
ATOM    105  CB  LEU d   1       5.653   7.665  -1.953  0.00  0.00     0.046 C 
BRANCH 105 106
ATOM    106  CG  LEU d   1       7.104   7.191  -1.778  0.00  0.00    -0.020 C 
ATOM    107  CD1 LEU d   1       7.645   7.500  -0.394  0.00  0.00     0.009 C 
ATOM    108  CD2 LEU d   1       7.312   5.732  -2.134  0.00  0.00     0.009 C 
ENDBRANCH 105 106
ENDBRANCH 104 105
BRANCH 104 109
ATOM    109  N   LEU d   1       4.304   5.586  -1.997  0.00  0.00    -0.066 N 
ATOM    110  HN3 LEU d   1       4.097   5.756  -2.981  1.00  0.00     0.275 HD
ATOM    111  HN2 LEU d   1       5.163   5.046  -2.104  1.00  0.00     0.275 HD
ATOM    112  HN1 LEU d   1       3.571   5.033  -1.554  1.00  0.00     0.275 HD
ENDBRANCH 104 109
ENDBRANCH 101 104
ENDBRANCH   1 100
BRANCH  44 113
ATOM    113  O   UNK d   5      -8.440   4.163   1.029  0.00  0.00    -0.360 OA
ATOM    114  HO  UNK d   5      -9.262   3.998   0.583  1.00  0.00     0.217 HD
ENDBRANCH  44 113
BRANCH  53 115
ATOM    115  C   UNK d   5      -9.586  -1.055   0.860  0.00  0.00     0.201 C 
ATOM    116  O   ACE d   7     -10.322  -0.679   1.975  0.00  0.00    -0.646 OA
ATOM    117  O   ACE d   7      -9.770  -2.191   0.346  0.00  0.00    -0.646 OA
ENDBRANCH  53 115
BRANCH  48 118
ATOM    118  O   UNK d   5      -8.645   4.206  -2.294  0.00  0.00    -0.360 OA
ATOM    119  HO  UNK d   5      -9.037   4.774  -2.948  1.00  0.00     0.217 HD
ENDBRANCH  48 118
BRANCH  50 120
ATOM    120  O   UNK d   5     -11.963   0.855  -3.236  0.00  0.00    -0.361 OA
ATOM    121  HO  UNK d   5     -12.336  -0.005  -3.080  1.00  0.00     0.217 HD
ENDBRANCH  50 120
TORSDOF 23
