REMARK  6 active torsions:
REMARK  status: ('A' for Active; 'I' for Inactive)
REMARK    1  A    between atoms: C_6  and  C_7 
REMARK    2  A    between atoms: C_7  and  C_8 
REMARK    3  A    between atoms: C_15  and  C_16 
REMARK    4  A    between atoms: C_16  and  C_17 
REMARK    5  A    between atoms: C_17  and  S_18 
REMARK    6  A    between atoms: S_18  and  C_21 
ROOT
ATOM      1  C   UNL d   1      -3.023   0.011   0.526  0.00  0.00    -0.028 A 
ATOM      2  C   UNL d   1      -3.500  -1.292   0.445  0.00  0.00     0.096 A 
ATOM      3  N   UNL d   1      -2.513  -2.131   0.039  0.00  0.00    -0.365 N 
ATOM      4  HN  UNL d   1      -2.578  -3.138  -0.107  1.00  0.00     0.165 HD
ATOM      5  C   UNL d   1      -1.431  -1.350  -0.130  0.00  0.00     0.043 A 
ATOM      6  C   UNL d   1      -0.166  -1.760  -0.545  0.00  0.00     0.031 A 
ATOM      7  C   UNL d   1       0.835  -0.778  -0.657  0.00  0.00     0.009 A 
ATOM      8  C   UNL d   1       0.555   0.574  -0.355  0.00  0.00    -0.056 A 
ATOM      9  C   UNL d   1      -0.735   0.957   0.059  0.00  0.00     0.021 A 
ATOM     10  C   UNL d   1      -1.702  -0.041   0.158  0.00  0.00    -0.001 A 
ENDROOT
BRANCH   8  11
ATOM     11  C   UNL d   1       1.637   1.594  -0.477  0.00  0.00     0.054 C 
BRANCH  11  12
ATOM     12  C   UNL d   1       2.078   2.113   0.887  0.00  0.00     0.150 C 
BRANCH  12  13
ATOM     13  S   UNL d   1       3.051   0.906   1.774  0.00  0.00     0.175 S 
ATOM     14  O   UNL d   1       2.148  -0.179   2.288  0.00  0.00    -0.223 OA
ATOM     15  O   UNL d   1       3.723   1.570   2.943  0.00  0.00    -0.223 OA
BRANCH  13  16
ATOM     16  C   UNL d   1       4.275   0.214   0.722  0.00  0.00     0.059 A 
ATOM     17  C   UNL d   1       4.217  -1.138   0.364  0.00  0.00     0.023 A 
ATOM     18  C   UNL d   1       5.188  -1.682  -0.482  0.00  0.00     0.002 A 
ATOM     19  C   UNL d   1       6.218  -0.875  -0.974  0.00  0.00     0.000 A 
ATOM     20  C   UNL d   1       6.277   0.476  -0.619  0.00  0.00     0.002 A 
ATOM     21  C   UNL d   1       5.306   1.020   0.227  0.00  0.00     0.023 A 
ENDBRANCH  13  16
ENDBRANCH  12  13
ENDBRANCH  11  12
ENDBRANCH   8  11
BRANCH   1  22
ATOM     22  C   UNL d   1      -3.806   1.229   0.922  0.00  0.00     0.076 C 
BRANCH  22  23
ATOM     23  C   UNL d   1      -4.482   1.971  -0.257  0.00  0.00     0.227 C 
ATOM     24  C   UNL d   1      -3.483   2.321  -1.344  0.00  0.00     0.038 C 
ATOM     25  C   UNL d   1      -3.814   1.401  -2.503  0.00  0.00     0.032 C 
ATOM     26  C   UNL d   1      -4.993   0.566  -2.041  0.00  0.00     0.272 C 
ATOM     27  N   UNL d   1      -5.591   1.264  -0.915  0.00  0.00     0.089 N 
ATOM     28  C   UNL d   1      -6.270   0.300  -0.056  0.00  0.00     0.310 C 
ENDBRANCH  22  23
ENDBRANCH   1  22
TORSDOF 6
