REMARK  9 active torsions:
REMARK  status: ('A' for Active; 'I' for Inactive)
REMARK    1  A    between atoms: C_2  and  C_3 
REMARK    2  A    between atoms: C_3  and  O_5 
REMARK    3  A    between atoms: O_5  and  C_6 
REMARK    4  A    between atoms: C_6  and  C_7 
REMARK    5  A    between atoms: C_7  and  C_9 
REMARK    6  A    between atoms: C_9  and  O_33 
REMARK    7  A    between atoms: C_15  and  O_29 
REMARK    8  A    between atoms: O_33  and  C_34 
REMARK    9  A    between atoms: C_34  and  C_36 
ROOT
ATOM      1  C   UNL d   1       1.556   0.927   0.394  0.00  0.00     0.144 C 
ATOM      2  C   UNL d   1       1.628   0.182  -0.955  0.00  0.00     0.026 C 
ATOM      3  C   UNL d   1       0.860  -1.116  -0.792  0.00  0.00     0.013 C 
ATOM      4  C   UNL d   1      -0.093  -0.908   0.380  0.00  0.00     0.005 C 
ATOM      5  C   UNL d   1       0.145   0.519   0.927  0.00  0.00     0.002 C 
ATOM      6  C   UNL d   1      -0.955   1.513   0.468  0.00  0.00     0.048 C 
ATOM      7  C   UNL d   1      -1.444   1.222  -0.949  0.00  0.00     0.160 C 
ATOM      8  C   UNL d   1      -2.110  -0.174  -1.086  0.00  0.00     0.147 C 
ATOM      9  C   UNL d   1      -1.554  -1.148  -0.016  0.00  0.00     0.035 C 
ATOM     10  C   UNL d   1      -1.899  -2.620  -0.304  0.00  0.00     0.013 C 
ATOM     11  C   UNL d   1      -3.260  -2.782  -1.009  0.00  0.00     0.036 C 
ATOM     12  C   UNL d   1      -4.162  -1.627  -0.692  0.00  0.00    -0.061 C 
ATOM     13  C   UNL d   1      -5.301  -1.861  -0.031  0.00  0.00     0.058 C 
ATOM     14  C   UNL d   1      -6.034  -0.741   0.569  0.00  0.00     0.172 C 
ATOM     15  O   UNL d   1      -7.193  -0.906   1.028  0.00  0.00    -0.289 OA
ATOM     16  C   UNL d   1      -5.338   0.541   0.738  0.00  0.00     0.052 C 
ATOM     17  C   UNL d   1      -4.202   0.766   0.071  0.00  0.00    -0.006 C 
ATOM     18  C   UNL d   1      -3.678  -0.199  -0.980  0.00  0.00     0.036 C 
ATOM     19  C   UNL d   1      -4.291   0.228  -2.311  0.00  0.00     0.028 C 
ATOM     20  F   UNL d   1      -1.731  -0.654  -2.333  0.00  0.00    -0.238 F 
ATOM     21  C   UNL d   1       0.064   0.482   2.450  0.00  0.00     0.019 C 
ATOM     22  C   UNL d   1       3.019  -0.080  -1.512  0.00  0.00     0.013 C 
ENDROOT
BRANCH   1  23
ATOM     23  C   UNL d   1       2.668   0.502   1.365  0.00  0.00     0.187 C 
ATOM     24  O   UNL d   1       3.231   1.340   2.053  0.00  0.00    -0.292 OA
BRANCH  23  25
ATOM     25  C   UNL d   1       3.013  -0.940   1.574  0.00  0.00     0.260 C 
BRANCH  25  26
ATOM     26  O   UNL d   1       4.342  -1.185   1.138  0.00  0.00    -0.314 OA
BRANCH  26  27
ATOM     27  C   UNL d   1       4.893  -2.466   1.143  0.00  0.00     0.258 C 
ATOM     28  O   UNL d   1       4.221  -3.458   1.534  0.00  0.00    -0.265 OA
BRANCH  27  29
ATOM     29  C   UNL d   1       6.280  -2.668   0.647  0.00  0.00     0.106 C 
ATOM     30  C   UNL d   1       6.276  -2.752  -0.867  0.00  0.00     0.015 C 
ENDBRANCH  27  29
ENDBRANCH  26  27
ENDBRANCH  25  26
ENDBRANCH  23  25
ENDBRANCH   1  23
BRANCH   1  31
ATOM     31  O   UNL d   1       1.590   2.349   0.177  0.00  0.00    -0.301 OA
BRANCH  31  32
ATOM     32  C   UNL d   1       2.667   3.081  -0.343  0.00  0.00     0.259 C 
ATOM     33  O   UNL d   1       3.779   2.538  -0.577  0.00  0.00    -0.265 OA
BRANCH  32  34
ATOM     34  C   UNL d   1       2.506   4.541  -0.573  0.00  0.00     0.106 C 
ATOM     35  C   UNL d   1       2.747   5.293   0.721  0.00  0.00     0.015 C 
ENDBRANCH  32  34
ENDBRANCH  31  32
ENDBRANCH   1  31
BRANCH   7  36
ATOM     36  O   UNL d   1      -2.242   2.261  -1.431  0.00  0.00    -0.392 OA
ATOM     37  HO  UNL d   1      -2.547   2.080  -2.312  1.00  0.00     0.210 HD
ENDBRANCH   7  36
TORSDOF 9
