REMARK  8 active torsions:
REMARK  status: ('A' for Active; 'I' for Inactive)
REMARK    1  A    between atoms: C_16  and  O_36 
REMARK    2  A    between atoms: C_19  and  C_20 
REMARK    3  A    between atoms: C_19  and  O_27 
REMARK    4  A    between atoms: C_20  and  C_22 
REMARK    5  A    between atoms: C_22  and  O_23 
REMARK    6  A    between atoms: O_23  and  C_24 
REMARK    7  A    between atoms: O_27  and  C_28 
REMARK    8  A    between atoms: C_28  and  C_30 
ROOT
ATOM      1  C   UNL d   1      -2.330  -3.007  -1.321  0.00  0.00     0.013 C 
ATOM      2  C   UNL d   1      -1.314  -1.929  -1.671  0.00  0.00     0.026 C 
ATOM      3  C   UNL d   1       0.105  -2.441  -1.591  0.00  0.00     0.013 C 
ATOM      4  C   UNL d   1       0.943  -1.179  -1.519  0.00  0.00     0.005 C 
ATOM      5  C   UNL d   1       2.280  -1.339  -0.777  0.00  0.00     0.035 C 
ATOM      6  C   UNL d   1       2.138  -2.009   0.597  0.00  0.00     0.013 C 
ATOM      7  C   UNL d   1       3.507  -2.259   1.223  0.00  0.00     0.036 C 
ATOM      8  C   UNL d   1       4.313  -0.997   1.237  0.00  0.00    -0.061 C 
ATOM      9  C   UNL d   1       5.001  -0.683   2.338  0.00  0.00     0.058 C 
ATOM     10  C   UNL d   1       5.812   0.537   2.387  0.00  0.00     0.172 C 
ATOM     11  O   UNL d   1       6.494   0.804   3.410  0.00  0.00    -0.289 OA
ATOM     12  C   UNL d   1       5.794   1.464   1.252  0.00  0.00     0.052 C 
ATOM     13  C   UNL d   1       5.130   1.149   0.138  0.00  0.00    -0.006 C 
ATOM     14  C   UNL d   1       4.421  -0.180  -0.050  0.00  0.00     0.036 C 
ATOM     15  C   UNL d   1       2.996   0.030  -0.663  0.00  0.00     0.147 C 
ATOM     16  C   UNL d   1       2.099   1.065   0.099  0.00  0.00     0.160 C 
ATOM     17  C   UNL d   1       0.606   0.710   0.173  0.00  0.00     0.048 C 
ATOM     18  C   UNL d   1       0.044  -0.014  -1.065  0.00  0.00     0.002 C 
ATOM     19  C   UNL d   1      -1.368  -0.655  -0.812  0.00  0.00     0.144 C 
ATOM     20  C   UNL d   1       0.008   0.977  -2.227  0.00  0.00     0.019 C 
ATOM     21  F   UNL d   1       3.156   0.528  -1.949  0.00  0.00    -0.238 F 
ATOM     22  C   UNL d   1       5.282  -0.984  -1.022  0.00  0.00     0.028 C 
ENDROOT
BRANCH  19  23
ATOM     23  C   UNL d   1      -1.611  -1.026   0.661  0.00  0.00     0.187 C 
ATOM     24  O   UNL d   1      -0.814  -1.737   1.253  0.00  0.00    -0.292 OA
BRANCH  23  25
ATOM     25  C   UNL d   1      -2.841  -0.591   1.391  0.00  0.00     0.260 C 
BRANCH  25  26
ATOM     26  O   UNL d   1      -3.961  -1.335   0.933  0.00  0.00    -0.314 OA
BRANCH  26  27
ATOM     27  C   UNL d   1      -5.254  -1.064   1.378  0.00  0.00     0.255 C 
ATOM     28  O   UNL d   1      -5.473  -0.146   2.213  0.00  0.00    -0.266 OA
ATOM     29  C   UNL d   1      -6.389  -1.869   0.858  0.00  0.00     0.126 C 
ENDBRANCH  26  27
ENDBRANCH  25  26
ENDBRANCH  23  25
ENDBRANCH  19  23
BRANCH  19  30
ATOM     30  O   UNL d   1      -2.441   0.159  -1.319  0.00  0.00    -0.295 OA
BRANCH  30  31
ATOM     31  C   UNL d   1      -2.762   1.454  -0.885  0.00  0.00     0.318 C 
ATOM     32  O   UNL d   1      -2.076   2.031   0.002  0.00  0.00    -0.257 OA
BRANCH  31  33
ATOM     33  C   UNL d   1      -3.918   2.135  -1.471  0.00  0.00     0.149 A 
ATOM     34  O   UNL d   1      -4.680   1.607  -2.394  0.00  0.00    -0.317 OA
ATOM     35  C   UNL d   1      -5.624   2.462  -2.706  0.00  0.00     0.143 A 
ATOM     36  C   UNL d   1      -5.466   3.607  -1.943  0.00  0.00     0.027 A 
ATOM     37  C   UNL d   1      -4.359   3.399  -1.140  0.00  0.00     0.045 A 
ENDBRANCH  31  33
ENDBRANCH  30  31
ENDBRANCH  19  30
BRANCH  16  38
ATOM     38  O   UNL d   1       2.549   1.328   1.395  0.00  0.00    -0.392 OA
ATOM     39  HO  UNL d   1       2.006   1.955   1.857  1.00  0.00     0.210 HD
ENDBRANCH  16  38
TORSDOF 8
