REMARK  2 active torsions:
REMARK  status: ('A' for Active; 'I' for Inactive)
REMARK    1  A    between atoms: C_2  and  N_20 
REMARK    2  A    between atoms: C_5  and  C_12 
ROOT
ATOM      1  C   UNL d   1       2.890   0.856  -0.405  0.00  0.00     0.218 C 
ATOM      2  C   UNL d   1       2.229   1.404  -1.667  0.00  0.00     0.039 C 
ATOM      3  C   UNL d   1       0.727   1.485  -1.460  0.00  0.00     0.016 C 
ATOM      4  C   UNL d   1       0.142   0.083  -1.291  0.00  0.00     0.052 C 
ATOM      5  C   UNL d   1       0.934  -0.782  -0.327  0.00  0.00    -0.041 A 
ATOM      6  C   UNL d   1       2.259  -0.442   0.045  0.00  0.00    -0.021 A 
ATOM      7  C   UNL d   1       2.959  -1.278   0.929  0.00  0.00     0.010 A 
ATOM      8  C   UNL d   1       2.389  -2.466   1.389  0.00  0.00     0.001 A 
ATOM      9  C   UNL d   1       1.107  -2.829   0.977  0.00  0.00     0.001 A 
ATOM     10  C   UNL d   1       0.387  -1.996   0.120  0.00  0.00     0.008 A 
ENDROOT
BRANCH   4  11
ATOM     11  C   UNL d   1      -1.311   0.177  -0.928  0.00  0.00    -0.048 A 
ATOM     12  C   UNL d   1      -1.719   0.747   0.287  0.00  0.00     0.033 A 
ATOM     13  C   UNL d   1      -3.076   0.824   0.612  0.00  0.00     0.056 A 
ATOM     14  C   UNL d   1      -4.037   0.327  -0.285  0.00  0.00     0.055 A 
ATOM     15 CL   UNL d   1      -3.535   1.545   2.146  0.00  0.00    -0.083 Cl
ATOM     16  C   UNL d   1      -3.629  -0.240  -1.496  0.00  0.00     0.026 A 
ATOM     17 CL   UNL d   1      -5.754   0.399   0.075  0.00  0.00    -0.083 Cl
ATOM     18  C   UNL d   1      -2.271  -0.315  -1.817  0.00  0.00     0.009 A 
ENDBRANCH   4  11
BRANCH   1  19
ATOM     19  N   UNL d   1       4.314   0.681  -0.652  0.00  0.00    -0.071 N 
ATOM     20  C   UNL d   1       4.994   1.817  -0.053  0.00  0.00     0.267 C 
ATOM     21  HN2 UNL d   1       4.537   0.557  -1.640  1.00  0.00     0.277 HD
ATOM     22  HN1 UNL d   1       4.670  -0.217  -0.324  1.00  0.00     0.277 HD
ENDBRANCH   1  19
TORSDOF 2
