REMARK  1 active torsions:
REMARK  status: ('A' for Active; 'I' for Inactive)
REMARK    1  A    between atoms: C_19  and  O_22 
ROOT
ATOM      1  C   UNL d   1      -2.351   1.571   1.233  0.00  0.00     0.020 C 
ATOM      2  C   UNL d   1      -2.019   0.201   0.658  0.00  0.00    -0.016 C 
ATOM      3  C   UNL d   1      -2.468  -0.869   1.680  0.00  0.00     0.022 C 
ATOM      4  C   UNL d   1      -3.985  -0.898   1.866  0.00  0.00     0.084 C 
ATOM      5  C   UNL d   1      -4.667  -1.012   0.542  0.00  0.00     0.149 C 
ATOM      6  O   UNL d   1      -5.819  -1.514   0.474  0.00  0.00    -0.293 OA
ATOM      7  C   UNL d   1      -4.023  -0.499  -0.674  0.00  0.00     0.053 C 
ATOM      8  C   UNL d   1      -2.799   0.041  -0.653  0.00  0.00    -0.068 C 
ATOM      9  C   UNL d   1      -2.253   0.522  -1.970  0.00  0.00     0.035 C 
ATOM     10  C   UNL d   1      -0.850   1.097  -1.854  0.00  0.00     0.010 C 
ATOM     11  C   UNL d   1      -0.004   0.163  -1.008  0.00  0.00    -0.004 C 
ATOM     12  C   UNL d   1      -0.471   0.183   0.449  0.00  0.00     0.002 C 
ATOM     13  C   UNL d   1       0.311  -0.872   1.230  0.00  0.00     0.007 C 
ATOM     14  C   UNL d   1       1.795  -0.518   1.207  0.00  0.00     0.014 C 
ATOM     15  C   UNL d   1       2.379  -0.412  -0.226  0.00  0.00     0.003 C 
ATOM     16  C   UNL d   1       1.498   0.460  -1.125  0.00  0.00     0.002 C 
ATOM     17  C   UNL d   1       1.886   1.899  -0.808  0.00  0.00     0.010 C 
ATOM     18  C   UNL d   1       3.300   1.839  -0.240  0.00  0.00     0.052 C 
ATOM     19  C   UNL d   1       3.710   0.371  -0.232  0.00  0.00     0.128 C 
ATOM     20  C   UNL d   1       4.579   0.088   0.924  0.00  0.00    -0.078 C 
ATOM     21  C   UNL d   1       5.290  -0.144   1.869  0.00  0.00     0.015 C 
ATOM     22  C   UNL d   1       2.532  -1.810  -0.816  0.00  0.00     0.020 C 
ENDROOT
BRANCH  19  23
ATOM     23  O   UNL d   1       4.430   0.114  -1.404  0.00  0.00    -0.377 OA
ATOM     24  HO  UNL d   1       5.249   0.595  -1.408  1.00  0.00     0.211 HD
ENDBRANCH  19  23
TORSDOF 1
