REMARK  8 active torsions:
REMARK  status: ('A' for Active; 'I' for Inactive)
REMARK    1  A    between atoms: C_4  and  O_34 
REMARK    2  A    between atoms: C_10  and  C_11 
REMARK    3  A    between atoms: C_10  and  O_22 
REMARK    4  A    between atoms: C_11  and  C_13 
REMARK    5  A    between atoms: C_13  and  O_14 
REMARK    6  A    between atoms: O_14  and  C_15 
REMARK    7  A    between atoms: C_15  and  C_17 
REMARK    8  A    between atoms: C_17  and  C_18 
ROOT
ATOM      1  C   UNL d   1      -0.492  -1.824  -0.205  0.00  0.00     0.019 C 
ATOM      2  C   UNL d   1      -0.156  -0.493  -0.895  0.00  0.00     0.001 C 
ATOM      3  C   UNL d   1       0.024   0.603   0.180  0.00  0.00     0.045 C 
ATOM      4  C   UNL d   1      -1.296   1.284   0.617  0.00  0.00     0.124 C 
ATOM      5  C   UNL d   1      -2.530   0.416   0.281  0.00  0.00     0.035 C 
ATOM      6  C   UNL d   1      -2.658   0.094  -1.223  0.00  0.00    -0.002 C 
ATOM      7  C   UNL d   1      -1.267  -0.094  -1.847  0.00  0.00     0.002 C 
ATOM      8  C   UNL d   1      -1.095  -0.908  -3.111  0.00  0.00     0.009 C 
ATOM      9  C   UNL d   1       0.403  -1.221  -3.150  0.00  0.00     0.047 C 
ATOM     10  C   UNL d   1       1.033  -0.647  -1.867  0.00  0.00     0.128 C 
ATOM     11  C   UNL d   1      -3.591  -1.103  -1.397  0.00  0.00     0.010 C 
ATOM     12  C   UNL d   1      -4.981  -0.752  -0.863  0.00  0.00     0.036 C 
ATOM     13  C   UNL d   1      -4.895  -0.268   0.557  0.00  0.00    -0.064 C 
ATOM     14  C   UNL d   1      -5.766  -0.749   1.449  0.00  0.00     0.058 C 
ATOM     15  C   UNL d   1      -5.690  -0.341   2.855  0.00  0.00     0.172 C 
ATOM     16  O   UNL d   1      -6.558  -0.732   3.677  0.00  0.00    -0.289 OA
ATOM     17  C   UNL d   1      -4.563   0.480   3.304  0.00  0.00     0.052 C 
ATOM     18  C   UNL d   1      -3.704   0.981   2.414  0.00  0.00    -0.009 C 
ATOM     19  C   UNL d   1      -3.876   0.813   0.918  0.00  0.00     0.004 C 
ATOM     20  C   UNL d   1      -4.363   2.142   0.353  0.00  0.00     0.025 C 
ENDROOT
BRANCH  10  21
ATOM     21  C   UNL d   1       2.150  -1.525  -1.334  0.00  0.00     0.185 C 
ATOM     22  O   UNL d   1       2.495  -2.532  -1.934  0.00  0.00    -0.292 OA
BRANCH  21  23
ATOM     23  C   UNL d   1       2.875  -1.151  -0.077  0.00  0.00     0.260 C 
BRANCH  23  24
ATOM     24  O   UNL d   1       3.791  -0.091  -0.325  0.00  0.00    -0.314 OA
BRANCH  24  25
ATOM     25  C   UNL d   1       5.022  -0.294  -0.954  0.00  0.00     0.259 C 
ATOM     26  O   UNL d   1       5.395  -1.452  -1.286  0.00  0.00    -0.265 OA
BRANCH  25  27
ATOM     27  C   UNL d   1       5.922   0.874  -1.210  0.00  0.00     0.119 C 
BRANCH  27  28
ATOM     28  C   UNL d   1       6.815   1.232  -0.019  0.00  0.00    -0.043 C 
ATOM     29  C   UNL d   1       7.727   0.074   0.346  0.00  0.00     0.015 C 
ATOM     30  C   UNL d   1       7.677   2.415  -0.407  0.00  0.00     0.015 C 
ATOM     31  C   UNL d   1       5.981   1.623   1.189  0.00  0.00     0.015 C 
ENDBRANCH  27  28
ENDBRANCH  25  27
ENDBRANCH  24  25
ENDBRANCH  23  24
ENDBRANCH  21  23
ENDBRANCH  10  21
BRANCH  10  32
ATOM     32  O   UNL d   1       1.564   0.610  -2.179  0.00  0.00    -0.381 OA
ATOM     33  HO  UNL d   1       2.296   0.516  -2.777  1.00  0.00     0.211 HD
ENDBRANCH  10  32
BRANCH   4  34
ATOM     34  O   UNL d   1      -1.395   2.535   0.005  0.00  0.00    -0.395 OA
ATOM     35  HO  UNL d   1      -2.205   2.954   0.273  1.00  0.00     0.210 HD
ENDBRANCH   4  34
TORSDOF 8
