REMARK  9 active torsions:
REMARK  status: ('A' for Active; 'I' for Inactive)
REMARK    1  A    between atoms: C_1  and  C_2 
REMARK    2  A    between atoms: C_1  and  C_6 
REMARK    3  A    between atoms: C_2  and  C_3 
REMARK    4  A    between atoms: C_6  and  C_7 
REMARK    5  A    between atoms: C_7  and  C_8 
REMARK    6  A    between atoms: C_8  and  C_9 
REMARK    7  A    between atoms: C_9  and  C_10 
REMARK    8  A    between atoms: C_10  and  C_11 
REMARK    9  A    between atoms: C_11  and  C_12 
ROOT
ATOM      1  C   UNL d   1       0.306  -1.323  -0.662  0.00  0.00     0.000 C 
ENDROOT
BRANCH   1   2
ATOM      2  C   UNL d   1       1.336  -1.984   0.241  0.00  0.00     0.001 C 
BRANCH   2   3
ATOM      3  C   UNL d   1       2.128  -0.948   1.031  0.00  0.00     0.010 C 
BRANCH   3   4
ATOM      4  C   UNL d   1       3.101  -0.189   0.138  0.00  0.00     0.113 C 
BRANCH   4   5
ATOM      5  C   UNL d   1       4.275  -1.039  -0.209  0.00  0.00     0.172 C 
ATOM      6  O   UNL d   1       4.263  -1.798  -1.372  0.00  0.00    -0.648 OA
ATOM      7  O   UNL d   1       5.266  -1.092   0.565  0.00  0.00    -0.648 OA
ENDBRANCH   4   5
ENDBRANCH   3   4
ENDBRANCH   2   3
ENDBRANCH   1   2
BRANCH   1   8
ATOM      8  C   UNL d   1      -0.856  -0.795   0.157  0.00  0.00     0.000 C 
BRANCH   8   9
ATOM      9  C   UNL d   1      -1.858  -0.123  -0.762  0.00  0.00     0.001 C 
BRANCH   9  10
ATOM     10  C   UNL d   1      -3.022   0.432   0.040  0.00  0.00     0.010 C 
BRANCH  10  11
ATOM     11  C   UNL d   1      -2.607   1.698   0.769  0.00  0.00     0.113 C 
BRANCH  11  12
ATOM     12  C   UNL d   1      -3.752   2.222   1.561  0.00  0.00     0.172 C 
ATOM     13  O   UNL d   1      -4.690   3.051   0.961  0.00  0.00    -0.648 OA
ATOM     14  O   UNL d   1      -3.889   1.888   2.767  0.00  0.00    -0.648 OA
ENDBRANCH  11  12
ENDBRANCH  10  11
ENDBRANCH   9  10
ENDBRANCH   8   9
ENDBRANCH   1   8
TORSDOF 9
