REMARK  10 active torsions:
REMARK  status: ('A' for Active; 'I' for Inactive)
REMARK    1  A    between atoms: C_2  and  C_3 
REMARK    2  A    between atoms: C_3  and  O_56 
REMARK    3  A    between atoms: C_7  and  C_22 
REMARK    4  A    between atoms: C_7  and  C_52 
REMARK    5  A    between atoms: C_27  and  O_28 
REMARK    6  A    between atoms: C_36  and  C_49 
REMARK    7  A    between atoms: C_40  and  O_47 
REMARK    8  A    between atoms: C_41  and  C_42 
REMARK    9  A    between atoms: C_41  and  O_45 
REMARK   10  A    between atoms: C_52  and  O_54 
ROOT
ATOM      1  C   UNL d   1       0.475   0.825  -1.310  0.00  0.00     0.000 A 
ATOM      2  C   UNL d   1      -0.500  -0.026  -0.743  0.00  0.00     0.022 A 
ATOM      3  C   UNL d   1      -1.803   0.426  -0.559  0.00  0.00    -0.018 A 
ATOM      4  C   UNL d   1      -2.170   1.681  -0.941  0.00  0.00     0.040 A 
ATOM      5  C   UNL d   1      -1.258   2.567  -1.506  0.00  0.00     0.067 A 
ATOM      6  C   UNL d   1       0.076   2.146  -1.694  0.00  0.00     0.078 A 
ATOM      7  N   UNL d   1      -3.540   1.919  -0.678  0.00  0.00    -0.375 N 
ATOM      8  C   UNL d   1      -4.080   0.782   0.076  0.00  0.00     0.145 C 
ATOM      9  C   UNL d   1      -3.006  -0.340  -0.104  0.00  0.00     0.047 C 
ATOM     10  C   UNL d   1      -3.399  -1.320  -1.189  0.00  0.00     0.049 C 
ATOM     11  C   UNL d   1      -2.789  -2.654  -0.772  0.00  0.00     0.274 C 
ATOM     12  C   UNL d   1      -2.746  -1.227   1.098  0.00  0.00     0.253 C 
ATOM     13  C   UNL d   1      -3.967  -1.344   2.044  0.00  0.00     0.038 C 
ATOM     14  C   UNL d   1      -3.546  -2.288   3.140  0.00  0.00    -0.015 C 
ATOM     15  C   UNL d   1      -2.910  -3.416   2.808  0.00  0.00    -0.000 C 
ATOM     16  C   UNL d   1      -2.677  -3.713   1.349  0.00  0.00     0.300 C 
ATOM     17  C   UNL d   1      -4.211   0.060   2.601  0.00  0.00     0.178 C 
ATOM     18  C   UNL d   1      -4.386   1.201   1.557  0.00  0.00     0.184 C 
ATOM     19  C   UNL d   1      -4.264   3.136  -1.005  0.00  0.00     0.150 C 
ATOM     20  N   UNL d   1      -2.255  -2.525   0.583  0.00  0.00     0.098 N 
ENDROOT
BRANCH   1  21
ATOM     21  C   UNL d   1       1.922   0.332  -1.515  0.00  0.00     0.117 C 
ATOM     22  C   UNL d   1       2.824   1.353  -0.772  0.00  0.00     0.037 C 
ATOM     23  C   UNL d   1       4.254   1.580  -1.284  0.00  0.00     0.018 C 
ATOM     24  C   UNL d   1       4.703   2.993  -0.907  0.00  0.00     0.046 C 
ATOM     25  C   UNL d   1       5.262   0.559  -0.739  0.00  0.00     0.277 C 
ATOM     26  C   UNL d   1       5.222   3.123   0.535  0.00  0.00     0.084 C 
ATOM     27  C   UNL d   1       4.927   1.856   1.353  0.00  0.00     0.310 C 
ATOM     28  N   UNL d   1       5.499   0.659   0.719  0.00  0.00     0.091 N 
ATOM     29  C   UNL d   1       5.012  -0.540   1.415  0.00  0.00     0.273 C 
ATOM     30  C   UNL d   1       3.531  -0.847   1.160  0.00  0.00     0.045 C 
ATOM     31  C   UNL d   1       3.382  -1.542  -0.187  0.00  0.00     0.070 A 
ATOM     32  C   UNL d   1       2.144  -1.079  -0.938  0.00  0.00     0.019 A 
ATOM     33  C   UNL d   1       3.060  -2.980  -0.006  0.00  0.00    -0.022 A 
ATOM     34  N   UNL d   1       1.327  -2.062  -1.201  0.00  0.00    -0.360 N 
ATOM     35  C   UNL d   1       1.864  -3.230  -0.616  0.00  0.00     0.039 A 
ATOM     36  HN  UNL d   1       0.459  -1.998  -1.733  1.00  0.00     0.165 HD
ATOM     37  C   UNL d   1       1.303  -4.506  -0.641  0.00  0.00     0.030 A 
ATOM     38  C   UNL d   1       2.012  -5.546  -0.016  0.00  0.00     0.002 A 
ATOM     39  C   UNL d   1       3.253  -5.291   0.605  0.00  0.00     0.001 A 
ATOM     40  C   UNL d   1       3.793  -3.994   0.609  0.00  0.00     0.010 A 
BRANCH  26  41
ATOM     41  C   UNL d   1       4.535   4.326   1.175  0.00  0.00     0.035 C 
ATOM     42  C   UNL d   1       5.070   4.630   2.568  0.00  0.00     0.008 C 
ENDBRANCH  26  41
BRANCH  26  43
ATOM     43  O   UNL d   1       6.603   3.338   0.493  0.00  0.00    -0.388 OA
ATOM     44  HO  UNL d   1       7.031   2.589   0.095  1.00  0.00     0.210 HD
ENDBRANCH  26  43
BRANCH  21  45
ATOM     45  C   UNL d   1       2.193   0.283  -3.014  0.00  0.00     0.277 C 
ATOM     46  O   UNL d   1       2.666   1.287  -3.616  0.00  0.00    -0.264 OA
BRANCH  45  47
ATOM     47  O   UNL d   1       1.834  -0.855  -3.746  0.00  0.00    -0.325 OA
ATOM     48  C   UNL d   1       2.035  -0.940  -5.148  0.00  0.00     0.213 C 
ENDBRANCH  45  47
ENDBRANCH  21  45
ENDBRANCH   1  21
BRANCH   6  49
ATOM     49  O   UNL d   1       1.011   3.024  -2.254  0.00  0.00    -0.355 OA
ATOM     50  C   UNL d   1       0.686   4.346  -2.663  0.00  0.00     0.210 C 
ENDBRANCH   6  49
BRANCH  18  51
ATOM     51  C   UNL d   1      -5.795   1.746   1.590  0.00  0.00     0.270 C 
ATOM     52  O   UNL d   1      -6.040   2.853   2.144  0.00  0.00    -0.273 OA
ATOM     53  N   UNL d   1      -6.870   0.996   1.029  0.00  0.00    -0.059 NA
ENDBRANCH  18  51
BRANCH  18  54
ATOM     54  O   UNL d   1      -3.499   2.214   1.942  0.00  0.00    -0.376 OA
ATOM     55  HO  UNL d   1      -3.684   2.468   2.838  1.00  0.00     0.211 HD
ENDBRANCH  18  54
BRANCH  13  56
ATOM     56  C   UNL d   1      -5.215  -1.891   1.310  0.00  0.00     0.014 C 
ATOM     57  C   UNL d   1      -6.393  -2.178   2.230  0.00  0.00     0.006 C 
ENDBRANCH  13  56
BRANCH  17  58
ATOM     58  O   UNL d   1      -5.160   0.086   3.632  0.00  0.00    -0.391 OA
ATOM     59  HO  UNL d   1      -5.312   0.958   3.978  1.00  0.00     0.210 HD
ENDBRANCH  17  58
TORSDOF 10
