REMARK  2 active torsions:
REMARK  status: ('A' for Active; 'I' for Inactive)
REMARK    1  A    between atoms: C_4  and  C_7 
REMARK    2  A    between atoms: C_10  and  O_22 
ROOT
ATOM      1  C   UNL d   1       0.551  -0.357  -0.250  0.00  0.00     0.053 C 
ATOM      2  N   UNL d   1       0.674  -1.545  -0.770  0.00  0.00    -0.355 N 
ATOM      3  HN  UNL d   1       1.612  -1.939  -0.831  1.00  0.00     0.162 HD
ATOM      4  C   UNL d   1      -0.427  -2.350  -1.270  0.00  0.00     0.312 C 
ATOM      5  C   UNL d   1      -1.303  -2.729  -0.122  0.00  0.00     0.271 C 
ATOM      6  O   UNL d   1      -1.388  -3.928   0.256  0.00  0.00    -0.268 OA
ATOM      7  N   UNL d   1      -2.046  -1.722   0.562  0.00  0.00    -0.323 N 
ATOM      8  HN  UNL d   1      -2.673  -2.021   1.309  1.00  0.00     0.169 HD
ATOM      9  C   UNL d   1      -1.971  -0.320   0.275  0.00  0.00     0.047 A 
ATOM     10  C   UNL d   1      -0.777   0.328  -0.153  0.00  0.00     0.020 A 
ATOM     11  C   UNL d   1      -0.829   1.701  -0.445  0.00  0.00     0.040 A 
ATOM     12  C   UNL d   1      -2.010   2.428  -0.299  0.00  0.00     0.035 A 
ATOM     13  C   UNL d   1      -3.163   1.795   0.160  0.00  0.00     0.026 A 
ATOM     14  C   UNL d   1      -3.140   0.431   0.446  0.00  0.00     0.032 A 
ATOM     15 CL   UNL d   1      -2.035   4.138  -0.666  0.00  0.00    -0.084 Cl
ENDROOT
BRANCH   1  16
ATOM     16  C   UNL d   1       1.785   0.320   0.227  0.00  0.00    -0.009 A 
ATOM     17  C   UNL d   1       3.046  -0.129  -0.200  0.00  0.00     0.014 A 
ATOM     18  C   UNL d   1       4.214   0.485   0.261  0.00  0.00     0.001 A 
ATOM     19  C   UNL d   1       4.134   1.552   1.159  0.00  0.00     0.000 A 
ATOM     20  C   UNL d   1       2.888   2.002   1.599  0.00  0.00     0.001 A 
ATOM     21  C   UNL d   1       1.720   1.387   1.138  0.00  0.00     0.014 A 
ENDBRANCH   1  16
BRANCH   4  22
ATOM     22  O   UNL d   1       0.078  -3.485  -1.908  0.00  0.00    -0.368 OA
ATOM     23  HO  UNL d   1      -0.642  -4.012  -2.235  1.00  0.00     0.212 HD
ENDBRANCH   4  22
TORSDOF 2
