REMARK  5 active torsions:
REMARK  status: ('A' for Active; 'I' for Inactive)
REMARK    1  A    between atoms: C_4  and  O_10 
REMARK    2  A    between atoms: O_10  and  C_11 
REMARK    3  A    between atoms: C_11  and  C_13 
REMARK    4  A    between atoms: C_13  and  C_14 
REMARK    5  A    between atoms: C_13  and  O_20 
ROOT
ATOM      1  C   UNL d   1       0.687  -0.569   0.679  0.00  0.00     0.292 C 
ATOM      2  O   UNL d   1       0.065   0.248   1.413  0.00  0.00    -0.262 OA
ENDROOT
BRANCH   1   3
ATOM      3  O   UNL d   1       0.047  -1.206  -0.390  0.00  0.00    -0.314 OA
BRANCH   3   4
ATOM      4  C   UNL d   1      -1.321  -0.997  -0.740  0.00  0.00     0.133 C 
ATOM      5  C   UNL d   1      -1.569   0.458  -1.173  0.00  0.00     0.037 C 
ATOM      6  C   UNL d   1      -2.995   0.938  -0.888  0.00  0.00    -0.015 C 
ATOM      7  C   UNL d   1      -3.350   2.066  -1.833  0.00  0.00     0.010 C 
ATOM      8  C   UNL d   1      -4.002  -0.200  -1.035  0.00  0.00     0.013 C 
ATOM      9  C   UNL d   1      -3.739  -1.331  -0.028  0.00  0.00    -0.045 C 
ATOM     10  C   UNL d   1      -2.262  -1.449   0.380  0.00  0.00     0.041 C 
ATOM     11  C   UNL d   1      -4.186  -2.640  -0.648  0.00  0.00     0.015 C 
ATOM     12  C   UNL d   1      -4.564  -1.084   1.218  0.00  0.00     0.015 C 
ENDBRANCH   3   4
ENDBRANCH   1   3
BRANCH   1  13
ATOM     13  C   UNL d   1       2.137  -0.837   0.919  0.00  0.00     0.250 C 
BRANCH  13  14
ATOM     14  C   UNL d   1       2.990   0.252   0.348  0.00  0.00    -0.020 A 
ATOM     15  C   UNL d   1       3.711   0.011  -0.827  0.00  0.00     0.010 A 
ATOM     16  C   UNL d   1       4.498   1.021  -1.388  0.00  0.00     0.001 A 
ATOM     17  C   UNL d   1       4.565   2.277  -0.777  0.00  0.00     0.000 A 
ATOM     18  C   UNL d   1       3.843   2.525   0.394  0.00  0.00     0.001 A 
ATOM     19  C   UNL d   1       3.055   1.516   0.955  0.00  0.00     0.010 A 
ENDBRANCH  13  14
BRANCH  13  20
ATOM     20  O   UNL d   1       2.390  -0.999   2.283  0.00  0.00    -0.381 OA
ATOM     21  HO  UNL d   1       3.312  -1.170   2.435  1.00  0.00     0.211 HD
ENDBRANCH  13  20
ENDBRANCH   1  13
TORSDOF 5
