REMARK  4 active torsions:
REMARK  status: ('A' for Active; 'I' for Inactive)
REMARK    1  A    between atoms: N_2  and  C_4 
REMARK    2  A    between atoms: N_9  and  C_10 
REMARK    3  A    between atoms: C_10  and  C_11 
REMARK    4  A    between atoms: C_11  and  N_12 
ROOT
ATOM      1  C   UNL d   1       2.497   0.017  -0.498  0.00  0.00     0.192 A 
ATOM      2  C   UNL d   1       3.666   0.697  -0.239  0.00  0.00     0.144 A 
ATOM      3  N   UNL d   1       3.404   2.017  -0.354  0.00  0.00    -0.358 N 
ATOM      4  HN  UNL d   1       4.061   2.786  -0.225  1.00  0.00     0.166 HD
ATOM      5  C   UNL d   1       2.095   2.113  -0.677  0.00  0.00     0.184 A 
ATOM      6  N   UNL d   1       1.523   0.901  -0.777  0.00  0.00    -0.322 N 
ENDROOT
BRANCH   6   7
ATOM      7  C   UNL d   1       0.119   0.646  -1.062  0.00  0.00     0.162 C 
BRANCH   7   8
ATOM      8  C   UNL d   1      -0.676   0.623   0.233  0.00  0.00     0.292 C 
BRANCH   8   9
ATOM      9  N   UNL d   1      -2.069   0.321  -0.050  0.00  0.00     0.094 N 
ATOM     10  C   UNL d   1      -2.244  -1.121   0.136  0.00  0.00     0.298 C 
ATOM     11  C   UNL d   1      -3.735  -1.466   0.083  0.00  0.00     0.198 C 
ATOM     12  O   UNL d   1      -4.415  -0.801   1.120  0.00  0.00    -0.388 OA
ATOM     13  C   UNL d   1      -4.326   0.579   0.856  0.00  0.00     0.198 C 
ATOM     14  C   UNL d   1      -2.866   1.031   0.951  0.00  0.00     0.298 C 
ENDBRANCH   8   9
ENDBRANCH   7   8
ENDBRANCH   6   7
BRANCH   1  15
ATOM     15  N   UNL d   1       2.348  -1.409  -0.471  0.00  0.00    -0.096 N 
ATOM     16  O   UNL d   1       3.424  -2.204  -0.150  0.00  0.00    -0.530 OA
ATOM     17  O   UNL d   1       1.256  -1.946  -0.749  0.00  0.00    -0.530 OA
ENDBRANCH   1  15
TORSDOF 4
