REMARK  9 active torsions:
REMARK  status: ('A' for Active; 'I' for Inactive)
REMARK    1  A    between atoms: C_3  and  C_34 
REMARK    2  A    between atoms: C_4  and  C_25 
REMARK    3  A    between atoms: C_5  and  C_10 
REMARK    4  A    between atoms: C_10  and  O_12 
REMARK    5  A    between atoms: C_13  and  O_12 
REMARK    6  A    between atoms: C_18  and  C_19 
REMARK    7  A    between atoms: C_18  and  N_38 
REMARK    8  A    between atoms: C_29  and  N_31 
REMARK    9  A    between atoms: C_34  and  O_36 
ROOT
ATOM      1  C   UNL d   1       4.537  -3.181   1.292  0.00  0.00     0.064 C 
ATOM      2  C   UNL d   1       3.483  -2.623   0.401  0.00  0.00    -0.003 C 
ATOM      3  C   UNL d   1       2.092  -2.417   0.935  0.00  0.00     0.144 C 
ATOM      4  C   UNL d   1       1.326  -1.349   0.143  0.00  0.00     0.079 C 
ATOM      5  C   UNL d   1       1.621  -1.358  -1.345  0.00  0.00     0.049 C 
ATOM      6  C   UNL d   1       2.821  -1.821  -1.774  0.00  0.00     0.018 C 
ATOM      7  N   UNL d   1       3.766  -2.370  -0.842  0.00  0.00    -0.366 N 
ATOM      8  HN  UNL d   1       4.709  -2.574  -1.173  1.00  0.00     0.165 HD
ATOM      9  C   UNL d   1       3.245  -1.754  -3.204  0.00  0.00     0.069 C 
ENDROOT
BRANCH   5  10
ATOM     10  C   UNL d   1       0.591  -0.767  -2.241  0.00  0.00     0.292 C 
ATOM     11  O   UNL d   1       0.687  -0.847  -3.498  0.00  0.00    -0.259 OA
BRANCH  10  12
ATOM     12  O   UNL d   1      -0.506  -0.115  -1.667  0.00  0.00    -0.310 OA
BRANCH  12  13
ATOM     13  C   UNL d   1      -1.479   0.578  -2.438  0.00  0.00     0.160 C 
ATOM     14  C   UNL d   1      -2.229   1.551  -1.525  0.00  0.00     0.305 C 
ATOM     15  N   UNL d   1      -3.485   1.983  -2.148  0.00  0.00     0.095 N 
ATOM     16  C   UNL d   1      -4.436   0.872  -2.367  0.00  0.00     0.273 C 
ATOM     17  C   UNL d   1      -3.764  -0.510  -2.414  0.00  0.00     0.033 C 
ATOM     18  C   UNL d   1      -2.423  -0.415  -3.133  0.00  0.00     0.036 C 
BRANCH  15  19
ATOM     19  C   UNL d   1      -4.117   3.027  -1.330  0.00  0.00     0.311 C 
BRANCH  19  20
ATOM     20  C   UNL d   1      -4.464   2.581   0.065  0.00  0.00    -0.030 A 
ATOM     21  C   UNL d   1      -5.725   2.035   0.334  0.00  0.00     0.009 A 
ATOM     22  C   UNL d   1      -6.045   1.615   1.629  0.00  0.00     0.001 A 
ATOM     23  C   UNL d   1      -5.106   1.740   2.658  0.00  0.00     0.000 A 
ATOM     24  C   UNL d   1      -3.846   2.288   2.393  0.00  0.00     0.001 A 
ATOM     25  C   UNL d   1      -3.526   2.709   1.099  0.00  0.00     0.009 A 
ENDBRANCH  19  20
ENDBRANCH  15  19
ENDBRANCH  12  13
ENDBRANCH  10  12
ENDBRANCH   5  10
BRANCH   4  26
ATOM     26  C   UNL d   1       1.498   0.012   0.748  0.00  0.00    -0.046 A 
ATOM     27  C   UNL d   1       2.719   0.700   0.660  0.00  0.00     0.043 A 
ATOM     28  C   UNL d   1       2.856   1.979   1.216  0.00  0.00     0.103 A 
ATOM     29  C   UNL d   1       1.758   2.566   1.864  0.00  0.00     0.036 A 
ATOM     30  C   UNL d   1       0.543   1.880   1.962  0.00  0.00     0.003 A 
ATOM     31  C   UNL d   1       0.414   0.605   1.406  0.00  0.00     0.008 A 
BRANCH  28  32
ATOM     32  N   UNL d   1       4.109   2.673   1.128  0.00  0.00    -0.116 N 
ATOM     33  O   UNL d   1       4.222   3.832   1.579  0.00  0.00    -0.532 OA
ATOM     34  O   UNL d   1       5.212   2.049   0.597  0.00  0.00    -0.532 OA
ENDBRANCH  28  32
ENDBRANCH   4  26
BRANCH   3  35
ATOM     35  C   UNL d   1       1.332  -3.708   0.980  0.00  0.00     0.269 C 
ATOM     36  O   UNL d   1       1.014  -4.298  -0.091  0.00  0.00    -0.264 OA
BRANCH  35  37
ATOM     37  O   UNL d   1       1.028  -4.269   2.222  0.00  0.00    -0.326 OA
ATOM     38  C   UNL d   1       0.279  -5.472   2.334  0.00  0.00     0.213 C 
ENDBRANCH  35  37
ENDBRANCH   3  35
TORSDOF 9
