REMARK  8 active torsions:
REMARK  status: ('A' for Active; 'I' for Inactive)
REMARK    1  A    between atoms: C_2  and  O_4 
REMARK    2  A    between atoms: O_4  and  C_5 
REMARK    3  A    between atoms: C_5  and  C_6 
REMARK    4  A    between atoms: C_6  and  N_29 
REMARK    5  A    between atoms: C_11  and  C_12 
REMARK    6  A    between atoms: C_11  and  N_30 
REMARK    7  A    between atoms: C_12  and  C_13 
REMARK    8  A    between atoms: C_13  and  N_14 
ROOT
ATOM      1  N   UNL d   1      -2.453  -0.205  -0.073  0.00  0.00    -0.345 N 
ATOM      2  C   UNL d   1      -2.498   0.615  -1.258  0.00  0.00     0.052 A 
ATOM      3  C   UNL d   1      -1.664   0.330  -2.352  0.00  0.00     0.031 A 
ATOM      4  C   UNL d   1      -1.815   1.023  -3.556  0.00  0.00     0.002 A 
ATOM      5  C   UNL d   1      -2.809   1.998  -3.682  0.00  0.00     0.002 A 
ATOM      6  C   UNL d   1      -3.637   2.296  -2.597  0.00  0.00     0.021 A 
ATOM      7  C   UNL d   1      -3.479   1.616  -1.386  0.00  0.00     0.032 A 
ATOM      8  S   UNL d   1      -4.425   2.134   0.046  0.00  0.00    -0.086 SA
ATOM      9  C   UNL d   1      -4.724   0.463   0.624  0.00  0.00     0.032 A 
ATOM     10  C   UNL d   1      -3.675  -0.474   0.643  0.00  0.00     0.053 A 
ATOM     11  C   UNL d   1      -3.888  -1.727   1.238  0.00  0.00     0.054 A 
ATOM     12  C   UNL d   1      -5.130  -2.043   1.797  0.00  0.00     0.036 A 
ATOM     13  C   UNL d   1      -6.176  -1.118   1.745  0.00  0.00     0.025 A 
ATOM     14  C   UNL d   1      -5.971   0.136   1.164  0.00  0.00     0.023 A 
ATOM     15 CL   UNL d   1      -5.384  -3.611   2.532  0.00  0.00    -0.084 Cl
ENDROOT
BRANCH   1  16
ATOM     16  C   UNL d   1      -1.230  -0.923   0.273  0.00  0.00     0.131 C 
BRANCH  16  17
ATOM     17  C   UNL d   1      -0.353  -0.050   1.153  0.00  0.00     0.050 C 
BRANCH  17  18
ATOM     18  C   UNL d   1       0.961  -0.754   1.442  0.00  0.00     0.274 C 
BRANCH  18  19
ATOM     19  N   UNL d   1       1.787  -0.802   0.237  0.00  0.00     0.091 N 
ATOM     20  C   UNL d   1       2.687   0.356   0.193  0.00  0.00     0.302 C 
ATOM     21  C   UNL d   1       3.760   0.302   1.294  0.00  0.00     0.302 C 
ATOM     22  N   UNL d   1       4.528  -0.948   1.260  0.00  0.00     0.093 N 
ATOM     23  C   UNL d   1       3.628  -2.104   1.306  0.00  0.00     0.302 C 
ATOM     24  C   UNL d   1       2.553  -2.051   0.207  0.00  0.00     0.302 C 
BRANCH  22  25
ATOM     25  C   UNL d   1       5.346  -1.004   0.051  0.00  0.00     0.299 C 
BRANCH  25  26
ATOM     26  C   UNL d   1       6.791  -0.652   0.374  0.00  0.00     0.209 C 
BRANCH  26  27
ATOM     27  O   UNL d   1       6.902   0.710   0.773  0.00  0.00    -0.320 OA
BRANCH  27  28
ATOM     28  C   UNL d   1       6.811   1.768  -0.135  0.00  0.00     0.254 C 
ATOM     29  C   UNL d   1       6.908   3.166   0.359  0.00  0.00     0.126 C 
ATOM     30  O   UNL d   1       6.651   1.553  -1.366  0.00  0.00    -0.266 OA
ENDBRANCH  27  28
ENDBRANCH  26  27
ENDBRANCH  25  26
ENDBRANCH  22  25
ENDBRANCH  18  19
ENDBRANCH  17  18
ENDBRANCH  16  17
ENDBRANCH   1  16
TORSDOF 8
