REMARK  7 active torsions:
REMARK  status: ('A' for Active; 'I' for Inactive)
REMARK    1  A    between atoms: C_1  and  C_2 
REMARK    2  A    between atoms: C_1  and  C_13 
REMARK    3  A    between atoms: C_1  and  C_15 
REMARK    4  A    between atoms: C_2  and  C_3 
REMARK    5  A    between atoms: C_2  and  C_5 
REMARK    6  A    between atoms: C_8  and  O_9 
REMARK    7  A    between atoms: C_18  and  O_19 
ROOT
ATOM      1  C   UNL d   1      -0.698  -0.351  -1.572  0.00  0.00     0.048 C 
ENDROOT
BRANCH   1   2
ATOM      2  C   UNL d   1       0.480  -1.219  -1.092  0.00  0.00    -0.061 C 
BRANCH   2   3
ATOM      3  C   UNL d   1       0.140  -2.560  -0.427  0.00  0.00     0.031 C 
ATOM      4  C   UNL d   1      -0.207  -2.429   1.046  0.00  0.00     0.010 C 
ENDBRANCH   2   3
BRANCH   2   5
ATOM      5  C   UNL d   1       1.620  -0.460  -0.479  0.00  0.00    -0.033 A 
ATOM      6  C   UNL d   1       1.488   0.193   0.755  0.00  0.00     0.014 A 
ATOM      7  C   UNL d   1       2.566   0.895   1.300  0.00  0.00     0.037 A 
ATOM      8  C   UNL d   1       3.782   0.949   0.613  0.00  0.00     0.065 A 
ATOM      9  C   UNL d   1       3.920   0.301  -0.617  0.00  0.00     0.037 A 
ATOM     10  C   UNL d   1       2.840  -0.402  -1.162  0.00  0.00     0.014 A 
BRANCH   8  11
ATOM     11  O   UNL d   1       4.854   1.647   1.153  0.00  0.00    -0.361 OA
ATOM     12  HO  UNL d   1       5.680   1.684   0.687  1.00  0.00     0.217 HD
ENDBRANCH   8  11
ENDBRANCH   2   5
ENDBRANCH   1   2
BRANCH   1  13
ATOM     13  C   UNL d   1      -1.482  -1.021  -2.696  0.00  0.00     0.009 C 
ATOM     14  C   UNL d   1      -0.665  -1.039  -3.974  0.00  0.00     0.006 C 
ENDBRANCH   1  13
BRANCH   1  15
ATOM     15  C   UNL d   1      -1.598   0.149  -0.478  0.00  0.00    -0.050 A 
ATOM     16  C   UNL d   1      -2.611  -0.656   0.065  0.00  0.00     0.010 A 
ATOM     17  C   UNL d   1      -3.434  -0.163   1.081  0.00  0.00     0.037 A 
ATOM     18  C   UNL d   1      -3.252   1.138   1.558  0.00  0.00     0.065 A 
ATOM     19  C   UNL d   1      -2.248   1.946   1.017  0.00  0.00     0.037 A 
ATOM     20  C   UNL d   1      -1.425   1.453   0.001  0.00  0.00     0.010 A 
BRANCH  18  21
ATOM     21  O   UNL d   1      -4.068   1.627   2.568  0.00  0.00    -0.361 OA
ATOM     22  HO  UNL d   1      -3.944   2.512   2.893  1.00  0.00     0.217 HD
ENDBRANCH  18  21
ENDBRANCH   1  15
TORSDOF 7
