REMARK  Name = fda_4668
REMARK  2 active torsions:
REMARK  status: ('A' for Active; 'I' for Inactive)
REMARK    1  A    between atoms: C_7  and  C_8
REMARK    2  A    between atoms: C_8  and  N_9
REMARK                            x       y       z     vdW  Elec       q    Type
REMARK                         _______ _______ _______ _____ _____    ______ ____
ROOT
ATOM      1  N   UNL A   1       0.129   0.295  -0.987  0.00  0.00    -0.265 NA
ATOM      2  C   UNL A   1       0.463   1.616  -0.417  0.00  0.00    +0.078 C 
ATOM      3  C   UNL A   1       1.582   1.554   0.637  0.00  0.00    +0.050 C 
ATOM      4  C   UNL A   1       2.692   0.696   0.139  0.00  0.00    +0.006 A 
ATOM      5  C   UNL A   1       2.547  -0.228  -0.873  0.00  0.00    -0.004 A 
ATOM      6  C   UNL A   1       1.280  -0.319  -1.673  0.00  0.00    +0.100 C 
ATOM      7  C   UNL A   1       3.696  -0.988  -1.117  0.00  0.00    +0.004 A 
ATOM      8  C   UNL A   1       4.750  -0.681  -0.254  0.00  0.00    +0.035 A 
ATOM      9  S   UNL A   1       4.226   0.541   0.787  0.00  0.00    -0.091 S 
ENDROOT
BRANCH   1  10
ATOM     10  C   UNL A   1      -0.356  -0.610   0.053  0.00  0.00    +0.100 C 
BRANCH  10  17
ATOM     11 CL   UNL A   1      -1.538   0.888   2.514  0.00  0.00    -0.083 Cl
ATOM     12  C   UNL A   1      -2.469   0.135   1.228  0.00  0.00    +0.055 A 
ATOM     13  C   UNL A   1      -3.865   0.200   1.287  0.00  0.00    +0.011 A 
ATOM     14  C   UNL A   1      -4.641  -0.393   0.287  0.00  0.00    +0.001 A 
ATOM     15  C   UNL A   1      -4.023  -1.054  -0.777  0.00  0.00    -0.000 A 
ATOM     16  C   UNL A   1      -2.629  -1.122  -0.842  0.00  0.00    -0.002 A 
ATOM     17  C   UNL A   1      -1.845  -0.531   0.157  0.00  0.00    +0.004 A 
ENDBRANCH  10  17
ENDBRANCH   1  10
TORSDOF 2
