REMARK  14 active torsions:
REMARK  status: ('A' for Active; 'I' for Inactive)
REMARK    1  A    between atoms: C_2  and  O_3 
REMARK    2  A    between atoms: C_2  and  O_34 
REMARK    3  A    between atoms: O_3  and  C_4 
REMARK    4  A    between atoms: C_4  and  C_6 
REMARK    5  A    between atoms: C_7  and  C_29 
REMARK    6  A    between atoms: C_14  and  N_15 
REMARK       I    between atoms: N_15  and  C_17 
REMARK    7  A    between atoms: C_17  and  C_19 
REMARK    8  A    between atoms: C_19  and  C_24 
REMARK    9  A    between atoms: N_20  and  O_22 
REMARK   10  A    between atoms: C_29  and  O_30 
REMARK   11  A    between atoms: O_30  and  C_31 
REMARK   12  A    between atoms: O_34  and  C_35 
REMARK   13  A    between atoms: C_35  and  C_37 
REMARK   14  A    between atoms: C_37  and  O_40 
ROOT
ATOM      1  C   UNL d   1      -0.499   0.227  -1.524  0.00  0.00     0.119 C 
ATOM      2  C   UNL d   1      -0.060   1.498  -1.456  0.00  0.00    -0.013 C 
ATOM      3  C   UNL d   1       1.413   1.754  -1.276  0.00  0.00     0.115 C 
ATOM      4  S   UNL d   1       2.488   0.920  -2.514  0.00  0.00    -0.136 SA
ATOM      5  C   UNL d   1       1.715  -0.756  -2.493  0.00  0.00     0.187 C 
ATOM      6  N   UNL d   1       0.492  -0.771  -1.733  0.00  0.00    -0.294 N 
ATOM      7  C   UNL d   1       1.004  -1.945  -0.992  0.00  0.00     0.251 C 
ATOM      8  O   UNL d   1       0.548  -2.703  -0.096  0.00  0.00    -0.271 OA
ATOM      9  C   UNL d   1       2.318  -1.810  -1.708  0.00  0.00     0.211 C 
ENDROOT
BRANCH   9  10
ATOM     10  N   UNL d   1       3.408  -1.362  -0.828  0.00  0.00    -0.339 N 
ATOM     11  C   UNL d   1       3.336  -0.574   0.373  0.00  0.00     0.273 C 
ATOM     12  O   UNL d   1       2.219  -0.283   0.880  0.00  0.00    -0.266 OA
ATOM     13  HN  UNL d   1       4.345  -1.649  -1.109  1.00  0.00     0.163 HD
BRANCH  11  14
ATOM     14  C   UNL d   1       4.572  -0.119   1.047  0.00  0.00     0.155 C 
ATOM     15  N   UNL d   1       4.464   0.374   2.246  0.00  0.00    -0.259 N 
ATOM     16  HN  UNL d   1       3.539   0.413   2.673  1.00  0.00     0.194 HD
BRANCH  15  17
ATOM     17  O   UNL d   1       5.539   0.847   2.964  0.00  0.00    -0.285 OA
ATOM     18  C   UNL d   1       5.346   1.371   4.265  0.00  0.00     0.237 C 
ENDBRANCH  15  17
BRANCH  14  19
ATOM     19  C   UNL d   1       5.896  -0.208   0.376  0.00  0.00     0.109 A 
ATOM     20  O   UNL d   1       7.044  -0.076   0.995  0.00  0.00    -0.320 OA
ATOM     21  C   UNL d   1       8.022  -0.197   0.131  0.00  0.00     0.142 A 
ATOM     22  C   UNL d   1       7.488  -0.419  -1.126  0.00  0.00     0.027 A 
ATOM     23  C   UNL d   1       6.114  -0.425  -0.971  0.00  0.00     0.041 A 
ENDBRANCH  14  19
ENDBRANCH  11  14
ENDBRANCH   9  10
BRANCH   1  24
ATOM     24  C   UNL d   1      -1.921  -0.183  -1.446  0.00  0.00     0.313 C 
ATOM     25  O   UNL d   1      -2.214  -1.400  -1.597  0.00  0.00    -0.258 OA
BRANCH  24  26
ATOM     26  O   UNL d   1      -2.933   0.755  -1.197  0.00  0.00    -0.284 OA
BRANCH  26  27
ATOM     27  C   UNL d   1      -4.315   0.423  -1.080  0.00  0.00     0.275 C 
ATOM     28  C   UNL d   1      -4.867  -0.066  -2.410  0.00  0.00     0.072 C 
BRANCH  27  29
ATOM     29  O   UNL d   1      -4.502  -0.556  -0.064  0.00  0.00    -0.287 OA
BRANCH  29  30
ATOM     30  C   UNL d   1      -5.743  -0.788   0.539  0.00  0.00     0.295 C 
ATOM     31  O   UNL d   1      -6.755  -0.120   0.188  0.00  0.00    -0.262 OA
BRANCH  30  32
ATOM     32  C   UNL d   1      -5.890  -1.884   1.569  0.00  0.00     0.140 C 
ATOM     33  C   UNL d   1      -4.544  -2.227   2.212  0.00  0.00     0.057 C 
ATOM     34  C   UNL d   1      -6.357  -3.129   0.841  0.00  0.00     0.057 C 
BRANCH  32  35
ATOM     35  O   UNL d   1      -6.866  -1.568   2.549  0.00  0.00    -0.376 OA
ATOM     36  C   UNL d   1      -6.463  -0.439   3.287  0.00  0.00     0.203 C 
ENDBRANCH  32  35
ENDBRANCH  30  32
ENDBRANCH  29  30
ENDBRANCH  27  29
ENDBRANCH  26  27
ENDBRANCH  24  26
ENDBRANCH   1  24
BRANCH   2  37
ATOM     37  C   UNL d   1      -0.973   2.675  -1.359  0.00  0.00     0.217 C 
BRANCH  37  38
ATOM     38  O   UNL d   1      -1.241   2.962   0.006  0.00  0.00    -0.302 OA
BRANCH  38  39
ATOM     39  C   UNL d   1      -2.132   3.964   0.385  0.00  0.00     0.372 C 
ATOM     40  O   UNL d   1      -2.335   4.184   1.607  0.00  0.00    -0.242 OA
ATOM     41  N   UNL d   1      -2.818   4.742  -0.593  0.00  0.00    -0.032 NA
ENDBRANCH  38  39
ENDBRANCH  37  38
ENDBRANCH   2  37
TORSDOF 14
