REMARK  1 active torsions:
REMARK  status: ('A' for Active; 'I' for Inactive)
REMARK    1  A    between atoms: C_10  and  O_11 
ROOT
ATOM      1  C   UNL d   1      -2.566  -1.298  -2.079  0.00  0.00     0.018 C 
ATOM      2  C   UNL d   1      -2.285  -0.739  -0.693  0.00  0.00    -0.014 C 
ATOM      3  C   UNL d   1      -1.450  -1.806   0.038  0.00  0.00     0.012 C 
ATOM      4  C   UNL d   1      -0.743  -1.280   1.283  0.00  0.00     0.006 C 
ATOM      5  C   UNL d   1       0.117  -0.066   0.950  0.00  0.00    -0.002 C 
ATOM      6  C   UNL d   1      -0.770   1.048   0.381  0.00  0.00    -0.005 C 
ATOM      7  C   UNL d   1      -1.578   0.613  -0.859  0.00  0.00     0.001 C 
ATOM      8  C   UNL d   1      -2.711   1.606  -1.071  0.00  0.00     0.008 C 
ATOM      9  C   UNL d   1      -3.946   1.022  -0.397  0.00  0.00     0.033 C 
ATOM     10  C   UNL d   1      -3.631  -0.422  -0.036  0.00  0.00     0.126 C 
ATOM     11  C   UNL d   1       0.075   2.292   0.099  0.00  0.00     0.010 C 
ATOM     12  C   UNL d   1       1.173   1.999  -0.919  0.00  0.00     0.035 C 
ATOM     13  C   UNL d   1       1.992   0.820  -0.497  0.00  0.00    -0.072 C 
ATOM     14  C   UNL d   1       3.292   0.813  -0.807  0.00  0.00     0.053 C 
ATOM     15  C   UNL d   1       4.131  -0.366  -0.550  0.00  0.00     0.149 C 
ATOM     16  O   UNL d   1       5.361  -0.329  -0.809  0.00  0.00    -0.293 OA
ATOM     17  C   UNL d   1       3.515  -1.632  -0.040  0.00  0.00     0.084 C 
ATOM     18  C   UNL d   1       2.290  -1.313   0.811  0.00  0.00     0.017 C 
ATOM     19  C   UNL d   1       1.305  -0.426   0.038  0.00  0.00     0.019 C 
ENDROOT
BRANCH  10  20
ATOM     20  O   UNL d   1      -3.572  -0.534   1.355  0.00  0.00    -0.395 OA
ATOM     21  HO  UNL d   1      -4.407  -0.337   1.763  1.00  0.00     0.210 HD
ENDBRANCH  10  20
TORSDOF 1
