REMARK  3 active torsions:
REMARK  status: ('A' for Active; 'I' for Inactive)
REMARK    1  A    between atoms: C_5  and  C_10 
REMARK    2  A    between atoms: C_10  and  O_12 
REMARK    3  A    between atoms: C_13  and  O_12 
ROOT
ATOM      1  C   UNL d   1      -0.344   0.304   0.921  0.00  0.00     0.140 C 
ATOM      2  C   UNL d   1      -0.060   1.566   1.724  0.00  0.00     0.034 C 
ATOM      3  C   UNL d   1       1.262   2.123   1.209  0.00  0.00     0.008 C 
ATOM      4  C   UNL d   1       1.825   1.101   0.225  0.00  0.00     0.001 C 
ATOM      5  C   UNL d   1       0.579   0.367  -0.292  0.00  0.00    -0.013 C 
ATOM      6  C   UNL d   1       0.855  -1.024  -0.872  0.00  0.00     0.012 C 
ATOM      7  C   UNL d   1       1.742  -1.885   0.016  0.00  0.00     0.006 C 
ATOM      8  C   UNL d   1       3.047  -1.166   0.334  0.00  0.00    -0.002 C 
ATOM      9  C   UNL d   1       2.814   0.205   0.995  0.00  0.00    -0.005 C 
ATOM     10  C   UNL d   1       4.116   0.978   1.303  0.00  0.00     0.010 C 
ATOM     11  C   UNL d   1       5.395   0.197   0.996  0.00  0.00     0.035 C 
ATOM     12  C   UNL d   1       5.306  -0.336  -0.395  0.00  0.00    -0.072 C 
ATOM     13  C   UNL d   1       6.191   0.057  -1.315  0.00  0.00     0.053 C 
ATOM     14  C   UNL d   1       5.995  -0.284  -2.735  0.00  0.00     0.149 C 
ATOM     15  O   UNL d   1       6.889  -0.003  -3.573  0.00  0.00    -0.293 OA
ATOM     16  C   UNL d   1       4.737  -0.975  -3.188  0.00  0.00     0.084 C 
ATOM     17  C   UNL d   1       3.612  -0.791  -2.166  0.00  0.00     0.017 C 
ATOM     18  C   UNL d   1       4.119  -1.190  -0.777  0.00  0.00     0.019 C 
ATOM     19  C   UNL d   1      -0.036   1.205  -1.410  0.00  0.00     0.018 C 
ENDROOT
BRANCH   1  20
ATOM     20  O   UNL d   1      -1.718   0.224   0.553  0.00  0.00    -0.314 OA
BRANCH  20  21
ATOM     21  C   UNL d   1      -2.717  -0.151   1.458  0.00  0.00     0.271 C 
ATOM     22  O   UNL d   1      -2.421  -0.425   2.654  0.00  0.00    -0.264 OA
BRANCH  21  23
ATOM     23  C   UNL d   1      -4.152  -0.157   1.019  0.00  0.00     0.065 C 
ATOM     24  C   UNL d   1      -4.999  -1.209   1.779  0.00  0.00     0.025 C 
ATOM     25  C   UNL d   1      -6.463  -1.206   1.250  0.00  0.00     0.014 C 
ATOM     26  C   UNL d   1      -6.615  -0.158   0.127  0.00  0.00    -0.026 C 
ATOM     27  C   UNL d   1      -8.010  -0.174  -0.463  0.00  0.00     0.019 C 
ATOM     28  C   UNL d   1      -6.276   1.219   0.739  0.00  0.00     0.014 C 
ATOM     29  C   UNL d   1      -5.564  -0.461  -0.923  0.00  0.00    -0.020 C 
ATOM     30  C   UNL d   1      -4.812   1.219   1.270  0.00  0.00     0.025 C 
ATOM     31  C   UNL d   1      -4.296  -0.461  -0.464  0.00  0.00    -0.010 C 
ENDBRANCH  21  23
ENDBRANCH  20  21
ENDBRANCH   1  20
TORSDOF 3
