REMARK  15 active torsions:
REMARK  status: ('A' for Active; 'I' for Inactive)
REMARK    1  A    between atoms: C_2  and  C_3 
REMARK    2  A    between atoms: C_3  and  C_4 
REMARK    3  A    between atoms: C_4  and  C_5 
REMARK    4  A    between atoms: C_5  and  C_6 
REMARK    5  A    between atoms: C_6  and  C_8 
REMARK    6  A    between atoms: C_6  and  O_27 
REMARK    7  A    between atoms: C_10  and  C_9 
REMARK    8  A    between atoms: C_11  and  O_25 
REMARK    9  A    between atoms: C_13  and  O_23 
REMARK   10  A    between atoms: C_14  and  C_15 
REMARK   11  A    between atoms: C_15  and  C_16 
REMARK   12  A    between atoms: C_17  and  C_18 
REMARK   13  A    between atoms: C_18  and  C_19 
REMARK   14  A    between atoms: C_19  and  C_20 
REMARK   15  A    between atoms: C_20  and  C_21 
ROOT
ATOM      1  C   UNL d   1      -0.662  -2.170  -1.115  0.00  0.00     0.043 C 
ATOM      2  C   UNL d   1      -1.563  -3.365  -1.372  0.00  0.00     0.128 C 
ATOM      3  C   UNL d   1      -1.317  -4.366  -0.250  0.00  0.00     0.064 C 
ATOM      4  C   UNL d   1      -0.207  -3.805   0.619  0.00  0.00     0.125 C 
ATOM      5  C   UNL d   1       0.441  -2.716  -0.203  0.00  0.00     0.028 C 
ENDROOT
BRANCH   1   6
ATOM      6  C   UNL d   1      -1.487  -1.091  -0.475  0.00  0.00    -0.020 C 
ATOM      7  C   UNL d   1      -1.130   0.193  -0.579  0.00  0.00     0.007 C 
BRANCH   7   8
ATOM      8  C   UNL d   1      -1.917   1.304   0.051  0.00  0.00     0.072 C 
ATOM      9  C   UNL d   1      -1.937   1.119   1.562  0.00  0.00     0.050 C 
BRANCH   8  10
ATOM     10  C   UNL d   1      -3.341   1.314  -0.520  0.00  0.00     0.041 C 
BRANCH  10  11
ATOM     11  C   UNL d   1      -4.155   2.529  -0.088  0.00  0.00     0.003 C 
BRANCH  11  12
ATOM     12  C   UNL d   1      -4.885   2.243   1.214  0.00  0.00    -0.000 C 
BRANCH  12  13
ATOM     13  C   UNL d   1      -5.648   3.471   1.674  0.00  0.00    -0.005 C 
ATOM     14  C   UNL d   1      -4.696   4.496   2.261  0.00  0.00     0.005 C 
ENDBRANCH  12  13
ENDBRANCH  11  12
ENDBRANCH  10  11
ENDBRANCH   8  10
BRANCH   8  15
ATOM     15  O   UNL d   1      -1.284   2.512  -0.248  0.00  0.00    -0.386 OA
ATOM     16  HO  UNL d   1      -0.403   2.505   0.105  1.00  0.00     0.211 HD
ENDBRANCH   8  15
ENDBRANCH   7   8
ENDBRANCH   1   6
BRANCH   5  17
ATOM     17  C   UNL d   1       1.147  -1.686   0.678  0.00  0.00     0.034 C 
BRANCH  17  18
ATOM     18  C   UNL d   1       2.056  -0.818  -0.131  0.00  0.00    -0.030 C 
ATOM     19  C   UNL d   1       3.193  -1.300  -0.633  0.00  0.00    -0.031 C 
BRANCH  19  20
ATOM     20  C   UNL d   1       4.105  -0.437  -1.446  0.00  0.00     0.027 C 
BRANCH  20  21
ATOM     21  C   UNL d   1       4.858   0.554  -0.571  0.00  0.00     0.014 C 
BRANCH  21  22
ATOM     22  C   UNL d   1       3.998   1.772  -0.286  0.00  0.00     0.113 C 
BRANCH  22  23
ATOM     23  C   UNL d   1       4.735   2.713   0.600  0.00  0.00     0.172 C 
ATOM     24  O   UNL d   1       4.587   2.648   1.848  0.00  0.00    -0.648 OA
ATOM     25  O   UNL d   1       5.611   3.640   0.054  0.00  0.00    -0.648 OA
ENDBRANCH  22  23
ENDBRANCH  21  22
ENDBRANCH  20  21
ENDBRANCH  19  20
ENDBRANCH  17  18
ENDBRANCH   5  17
BRANCH   2  26
ATOM     26  O   UNL d   1      -1.223  -3.948  -2.593  0.00  0.00    -0.395 OA
ATOM     27  HO  UNL d   1      -1.787  -4.695  -2.754  1.00  0.00     0.210 HD
ENDBRANCH   2  26
BRANCH   4  28
ATOM     28  O   UNL d   1       0.722  -4.805   0.904  0.00  0.00    -0.395 OA
ATOM     29  HO  UNL d   1       1.417  -4.453   1.448  1.00  0.00     0.210 HD
ENDBRANCH   4  28
TORSDOF 15
