REMARK  5 active torsions:
REMARK  status: ('A' for Active; 'I' for Inactive)
REMARK    1  A    between atoms: C_13  and  O_28 
REMARK    2  A    between atoms: C_19  and  C_20 
REMARK    3  A    between atoms: C_19  and  O_25 
REMARK    4  A    between atoms: C_20  and  C_22 
REMARK    5  A    between atoms: C_22  and  O_23 
ROOT
ATOM      1  C   UNL d   1      -2.817  -1.246   1.344  0.00  0.00     0.023 C 
ATOM      2  C   UNL d   1      -2.440   0.124   0.777  0.00  0.00     0.019 C 
ATOM      3  C   UNL d   1      -2.973   1.217   1.730  0.00  0.00     0.025 C 
ATOM      4  C   UNL d   1      -4.496   1.323   1.713  0.00  0.00     0.084 C 
ATOM      5  C   UNL d   1      -4.981   1.483   0.309  0.00  0.00     0.149 C 
ATOM      6  O   UNL d   1      -6.049   2.108   0.082  0.00  0.00    -0.293 OA
ATOM      7  C   UNL d   1      -4.253   0.851  -0.797  0.00  0.00     0.053 C 
ATOM      8  C   UNL d   1      -3.074   0.251  -0.605  0.00  0.00    -0.065 C 
ATOM      9  C   UNL d   1      -2.479  -0.501  -1.754  0.00  0.00     0.036 C 
ATOM     10  C   UNL d   1      -0.973  -0.301  -1.800  0.00  0.00     0.013 C 
ATOM     11  C   UNL d   1      -0.339  -0.655  -0.455  0.00  0.00     0.034 C 
ATOM     12  C   UNL d   1      -0.886   0.263   0.666  0.00  0.00     0.144 C 
ATOM     13  C   UNL d   1      -0.215  -0.081   2.024  0.00  0.00     0.160 C 
ATOM     14  C   UNL d   1       1.142  -0.787   1.919  0.00  0.00     0.048 C 
ATOM     15  C   UNL d   1       1.979  -0.347   0.702  0.00  0.00     0.001 C 
ATOM     16  C   UNL d   1       1.192  -0.599  -0.597  0.00  0.00     0.005 C 
ATOM     17  C   UNL d   1       1.692  -1.919  -1.172  0.00  0.00     0.009 C 
ATOM     18  C   UNL d   1       2.812  -2.412  -0.272  0.00  0.00     0.047 C 
ATOM     19  C   UNL d   1       3.255  -1.222   0.562  0.00  0.00     0.128 C 
ATOM     20  C   UNL d   1       2.315   1.139   0.843  0.00  0.00     0.019 C 
ATOM     21  F   UNL d   1      -0.580   1.577   0.327  0.00  0.00    -0.239 F 
ENDROOT
BRANCH  19  22
ATOM     22  C   UNL d   1       4.413  -0.524  -0.144  0.00  0.00     0.184 C 
ATOM     23  O   UNL d   1       5.446  -0.288   0.466  0.00  0.00    -0.292 OA
BRANCH  22  24
ATOM     24  C   UNL d   1       4.314  -0.102  -1.579  0.00  0.00     0.245 C 
BRANCH  24  25
ATOM     25  O   UNL d   1       4.415   1.285  -1.677  0.00  0.00    -0.393 OA
ATOM     26  HO  UNL d   1       4.352   1.552  -2.586  1.00  0.00     0.209 HD
ENDBRANCH  24  25
ENDBRANCH  22  24
ENDBRANCH  19  22
BRANCH  19  27
ATOM     27  O   UNL d   1       3.689  -1.685   1.811  0.00  0.00    -0.381 OA
ATOM     28  HO  UNL d   1       4.469  -2.220   1.725  1.00  0.00     0.211 HD
ENDBRANCH  19  27
BRANCH  13  29
ATOM     29  O   UNL d   1      -0.108   1.048   2.840  0.00  0.00    -0.392 OA
ATOM     30  HO  UNL d   1       0.302   0.838   3.670  1.00  0.00     0.210 HD
ENDBRANCH  13  29
TORSDOF 5
