REMARK  4 active torsions:
REMARK  status: ('A' for Active; 'I' for Inactive)
REMARK    1  A    between atoms: C_7  and  C_5 
REMARK    2  A    between atoms: N_14  and  C_21 
REMARK    3  A    between atoms: C_21  and  C_22 
REMARK    4  A    between atoms: C_22  and  O_23 
ROOT
ATOM      1  C   UNL d   1      -0.802  -0.855   0.893  0.00  0.00     0.195 C 
ATOM      2  C   UNL d   1       0.095   0.403   1.022  0.00  0.00     0.030 A 
ATOM      3  C   UNL d   1      -0.299   1.366   1.975  0.00  0.00     0.038 A 
ATOM      4  C   UNL d   1       0.319   2.611   2.069  0.00  0.00     0.034 A 
ATOM      5  C   UNL d   1       1.335   2.946   1.184  0.00  0.00     0.026 A 
ATOM      6  C   UNL d   1       1.744   2.024   0.225  0.00  0.00     0.032 A 
ATOM      7  C   UNL d   1       1.146   0.756   0.130  0.00  0.00     0.049 A 
ATOM      8  N   UNL d   1       1.687  -0.177  -0.808  0.00  0.00    -0.314 N 
ATOM      9  C   UNL d   1       1.978  -1.490  -0.353  0.00  0.00     0.242 C 
ATOM     10  O   UNL d   1       3.160  -1.827  -0.081  0.00  0.00    -0.271 OA
ATOM     11  C   UNL d   1       0.884  -2.472  -0.250  0.00  0.00     0.224 C 
ATOM     12  C   UNL d   1       0.287  -2.479   2.120  0.00  0.00     0.147 C 
ATOM     13  C   UNL d   1      -0.772  -1.798   2.952  0.00  0.00     0.191 C 
ATOM     14  O   UNL d   1      -1.543  -0.978   2.095  0.00  0.00    -0.350 OA
ATOM     15 CL   UNL d   1      -0.210   3.762   3.276  0.00  0.00    -0.084 Cl
ATOM     16  N   UNL d   1      -0.106  -2.149   0.780  0.00  0.00    -0.364 N 
ENDROOT
BRANCH   1  17
ATOM     17  C   UNL d   1      -1.778  -0.648  -0.261  0.00  0.00     0.040 A 
ATOM     18  C   UNL d   1      -2.892   0.214  -0.133  0.00  0.00     0.127 A 
ATOM     19  C   UNL d   1      -3.748   0.430  -1.217  0.00  0.00     0.043 A 
ATOM     20  F   UNL d   1      -3.153   0.855   1.034  0.00  0.00    -0.205 F 
ATOM     21  C   UNL d   1      -3.506  -0.192  -2.442  0.00  0.00     0.003 A 
ATOM     22  C   UNL d   1      -2.401  -1.030  -2.590  0.00  0.00     0.001 A 
ATOM     23  C   UNL d   1      -1.543  -1.249  -1.510  0.00  0.00     0.015 A 
ENDBRANCH   1  17
BRANCH   8  24
ATOM     24  C   UNL d   1       2.233   0.267  -2.089  0.00  0.00     0.158 C 
BRANCH  24  25
ATOM     25  C   UNL d   1       3.698   0.644  -1.949  0.00  0.00     0.184 C 
BRANCH  25  26
ATOM     26  O   UNL d   1       4.188   1.067  -3.183  0.00  0.00    -0.399 OA
ATOM     27  HO  UNL d   1       5.104   1.302  -3.096  1.00  0.00     0.209 HD
ENDBRANCH  25  26
ENDBRANCH  24  25
ENDBRANCH   8  24
TORSDOF 4
