REMARK  13 active torsions:
REMARK  status: ('A' for Active; 'I' for Inactive)
REMARK    1  A    between atoms: C_2  and  O_3 
REMARK    2  A    between atoms: O_3  and  C_4 
REMARK    3  A    between atoms: C_4  and  O_6 
REMARK    4  A    between atoms: O_6  and  C_7 
REMARK    5  A    between atoms: C_8  and  O_47 
REMARK    6  A    between atoms: C_10  and  C_15 
REMARK    7  A    between atoms: C_12  and  O_13 
REMARK    8  A    between atoms: C_15  and  O_17 
REMARK    9  A    between atoms: C_18  and  O_17 
REMARK   10  A    between atoms: C_28  and  O_45 
REMARK   11  A    between atoms: C_37  and  C_41 
REMARK   12  A    between atoms: C_38  and  O_39 
REMARK   13  A    between atoms: C_41  and  O_43 
ROOT
ATOM      1  C   UNL d   1      -0.412  -0.678   1.377  0.00  0.00     0.162 C 
ATOM      2  C   UNL d   1       0.436   0.528   0.932  0.00  0.00     0.042 C 
ATOM      3  C   UNL d   1       1.821   0.110   0.435  0.00  0.00     0.021 C 
ATOM      4  C   UNL d   1       2.786   1.301   0.427  0.00  0.00     0.278 C 
ATOM      5  C   UNL d   1       4.691   2.353   1.456  0.00  0.00     0.278 C 
ATOM      6  C   UNL d   1       5.421   2.638   0.129  0.00  0.00     0.072 C 
ATOM      7  C   UNL d   1       6.049   1.381  -0.365  0.00  0.00    -0.019 A 
ATOM      8  C   UNL d   1       7.008   1.189  -1.323  0.00  0.00    -0.001 A 
ATOM      9  C   UNL d   1       7.726   2.094  -2.099  0.00  0.00     0.017 A 
ATOM     10  C   UNL d   1       8.663   1.565  -3.004  0.00  0.00     0.038 A 
ATOM     11  C   UNL d   1       8.861   0.164  -3.114  0.00  0.00     0.070 A 
ATOM     12  C   UNL d   1       8.111  -0.716  -2.310  0.00  0.00     0.067 A 
ATOM     13  C   UNL d   1       7.187  -0.169  -1.422  0.00  0.00     0.046 A 
ATOM     14  N   UNL d   1       6.382  -0.851  -0.580  0.00  0.00    -0.357 N 
ATOM     15  HN  UNL d   1       6.322  -1.860  -0.445  1.00  0.00     0.166 HD
ATOM     16  C   UNL d   1       5.671   0.121   0.043  0.00  0.00     0.050 A 
ATOM     17  C   UNL d   1       4.676  -0.090   1.148  0.00  0.00     0.273 C 
ATOM     18  C   UNL d   1       3.813  -1.335   0.880  0.00  0.00     0.048 C 
ATOM     19  C   UNL d   1       2.354  -1.082   1.238  0.00  0.00     0.010 C 
ATOM     20  C   UNL d   1       1.492  -2.334   1.010  0.00  0.00     0.121 C 
ATOM     21  C   UNL d   1       0.004  -2.022   0.747  0.00  0.00     0.164 C 
ATOM     22  N   UNL d   1       3.863   1.131   1.412  0.00  0.00     0.099 N 
ENDROOT
BRANCH   1  23
ATOM     23  O   UNL d   1      -1.817  -0.433   1.292  0.00  0.00    -0.309 OA
BRANCH  23  24
ATOM     24  C   UNL d   1      -2.487  -0.011   0.134  0.00  0.00     0.294 C 
ATOM     25  O   UNL d   1      -1.844   0.269  -0.915  0.00  0.00    -0.259 OA
BRANCH  24  26
ATOM     26  C   UNL d   1      -3.953   0.114   0.150  0.00  0.00     0.045 A 
ATOM     27  C   UNL d   1      -4.671  -0.208   1.304  0.00  0.00     0.057 A 
ATOM     28  C   UNL d   1      -6.068  -0.092   1.337  0.00  0.00     0.106 A 
ATOM     29  C   UNL d   1      -6.756   0.366   0.202  0.00  0.00     0.148 A 
ATOM     30  C   UNL d   1      -6.042   0.661  -0.979  0.00  0.00     0.106 A 
ATOM     31  C   UNL d   1      -4.644   0.541  -0.988  0.00  0.00     0.057 A 
BRANCH  28  32
ATOM     32  O   UNL d   1      -6.793  -0.415   2.490  0.00  0.00    -0.353 OA
ATOM     33  C   UNL d   1      -6.176  -0.882   3.682  0.00  0.00     0.210 C 
ENDBRANCH  28  32
BRANCH  29  34
ATOM     34  O   UNL d   1      -8.152   0.477   0.267  0.00  0.00    -0.250 OA
BRANCH  34  35
ATOM     35  C   UNL d   1      -8.879   1.579  -0.198  0.00  0.00     0.411 C 
ATOM     36  O   UNL d   1      -8.294   2.659  -0.487  0.00  0.00    -0.229 OA
BRANCH  35  37
ATOM     37  O   UNL d   1     -10.268   1.478  -0.297  0.00  0.00    -0.298 OA
BRANCH  37  38
ATOM     38  C   UNL d   1     -11.085   2.564  -0.718  0.00  0.00     0.176 C 
ATOM     39  C   UNL d   1     -11.250   3.563   0.413  0.00  0.00     0.034 C 
ENDBRANCH  37  38
ENDBRANCH  35  37
ENDBRANCH  34  35
ENDBRANCH  29  34
BRANCH  30  40
ATOM     40  O   UNL d   1      -6.734   1.042  -2.135  0.00  0.00    -0.353 OA
ATOM     41  C   UNL d   1      -6.081   1.347  -3.360  0.00  0.00     0.210 C 
ENDBRANCH  30  40
ENDBRANCH  24  26
ENDBRANCH  23  24
ENDBRANCH   1  23
BRANCH  21  42
ATOM     42  O   UNL d   1      -0.236  -2.026  -0.629  0.00  0.00    -0.387 OA
ATOM     43  C   UNL d   1      -1.064  -3.129  -0.844  0.00  0.00     0.202 C 
ENDBRANCH  21  42
BRANCH  20  44
ATOM     44  C   UNL d   1       1.623  -3.275   2.160  0.00  0.00     0.265 C 
ATOM     45  O   UNL d   1       2.049  -4.444   1.956  0.00  0.00    -0.265 OA
BRANCH  44  46
ATOM     46  O   UNL d   1       1.266  -2.860   3.445  0.00  0.00    -0.326 OA
ATOM     47  C   UNL d   1       1.371  -3.723   4.567  0.00  0.00     0.213 C 
ENDBRANCH  44  46
ENDBRANCH  20  44
BRANCH  11  48
ATOM     48  O   UNL d   1       9.790  -0.371  -4.009  0.00  0.00    -0.356 OA
ATOM     49  C   UNL d   1      10.591   0.438  -4.860  0.00  0.00     0.210 C 
ENDBRANCH  11  48
TORSDOF 13
