REMARK  7 active torsions:
REMARK  status: ('A' for Active; 'I' for Inactive)
REMARK    1  A    between atoms: C_2  and  N_22 
REMARK    2  A    between atoms: C_5  and  C_6 
REMARK    3  A    between atoms: C_5  and  N_22 
REMARK    4  A    between atoms: C_6  and  C_7 
REMARK    5  A    between atoms: C_6  and  O_20 
REMARK    6  A    between atoms: C_7  and  O_8 
REMARK    7  A    between atoms: O_8  and  C_9 
ROOT
ATOM      1  C   UNL d   1       1.290   1.948  -0.486  0.00  0.00     0.209 C 
ENDROOT
BRANCH   1   2
ATOM      2  C   UNL d   1       2.019   1.076  -1.500  0.00  0.00     0.168 C 
BRANCH   2   3
ATOM      3  C   UNL d   1       2.699  -0.112  -0.830  0.00  0.00     0.267 C 
BRANCH   3   4
ATOM      4  N   UNL d   1       3.727   0.337   0.110  0.00  0.00    -0.065 N 
ATOM      5  HN2 UNL d   1       3.384   1.089   0.708  1.00  0.00     0.278 HD
ATOM      6  HN1 UNL d   1       4.474   0.843  -0.366  1.00  0.00     0.278 HD
BRANCH   4   7
ATOM      7  C   UNL d   1       4.253  -0.781   0.900  0.00  0.00     0.115 C 
ATOM      8  C   UNL d   1       3.156  -1.428   1.733  0.00  0.00     0.045 C 
ATOM      9  C   UNL d   1       4.909  -1.824   0.007  0.00  0.00     0.045 C 
ATOM     10  C   UNL d   1       5.307  -0.245   1.846  0.00  0.00     0.045 C 
ENDBRANCH   4   7
ENDBRANCH   3   4
ENDBRANCH   2   3
BRANCH   2  11
ATOM     11  O   UNL d   1       2.959   1.841  -2.193  0.00  0.00    -0.392 OA
ATOM     12  HO  UNL d   1       2.536   2.581  -2.611  1.00  0.00     0.210 HD
ENDBRANCH   2  11
ENDBRANCH   1   2
BRANCH   1  13
ATOM     13  O   UNL d   1       0.242   1.218   0.144  0.00  0.00    -0.348 OA
BRANCH  13  14
ATOM     14  C   UNL d   1      -0.979   0.926  -0.480  0.00  0.00     0.076 A 
ATOM     15  C   UNL d   1      -1.924   0.128   0.188  0.00  0.00    -0.011 A 
ATOM     16  C   UNL d   1      -3.166  -0.153  -0.423  0.00  0.00     0.019 A 
ATOM     17  C   UNL d   1      -1.637  -0.366   1.582  0.00  0.00     0.043 C 
ATOM     18  C   UNL d   1      -3.439   0.346  -1.702  0.00  0.00     0.016 A 
ATOM     19  C   UNL d   1      -4.154  -1.002   0.277  0.00  0.00     0.160 C 
ATOM     20  C   UNL d   1      -2.497   1.131  -2.368  0.00  0.00     0.004 A 
ATOM     21  C   UNL d   1      -1.274   1.420  -1.760  0.00  0.00     0.037 A 
ATOM     22  C   UNL d   1      -3.866  -1.506   1.659  0.00  0.00     0.084 C 
ATOM     23  O   UNL d   1      -5.260  -1.275  -0.261  0.00  0.00    -0.292 OA
ATOM     24  C   UNL d   1      -2.364  -1.678   1.867  0.00  0.00     0.012 C 
ENDBRANCH  13  14
ENDBRANCH   1  13
TORSDOF 7
