REMARK  Name = fda_4592
REMARK  2 active torsions:
REMARK  status: ('A' for Active; 'I' for Inactive)
REMARK    1  A    between atoms: S_1  and  N_4
REMARK    2  A    between atoms: S_1  and  C_13
REMARK                            x       y       z     vdW  Elec       q    Type
REMARK                         _______ _______ _______ _____ _____    ______ ____
ROOT
ATOM      1  S   UNL A   1       0.552  -0.065  -1.923  0.00  0.00    +0.096 S 
ATOM      2  O   UNL A   1       1.327  -0.714  -3.034  0.00  0.00    -0.148 OA
ATOM      3  O   UNL A   1      -0.091   1.190  -2.444  0.00  0.00    -0.148 OA
ENDROOT
BRANCH   1   4
ATOM      4  N   UNL A   1      -0.681  -1.149  -1.372  0.00  0.00    -0.058 NA
ATOM      5  C   UNL A   1      -1.528  -0.852  -0.262  0.00  0.00    +0.258 A 
ATOM      6  N   UNL A   1      -1.400   0.323   0.413  0.00  0.00    -0.215 NA
ATOM      7  C   UNL A   1      -2.198   0.610   1.474  0.00  0.00    +0.064 A 
ATOM      8  C   UNL A   1      -3.166  -0.305   1.886  0.00  0.00    +0.030 A 
ATOM      9  C   UNL A   1      -3.284  -1.502   1.182  0.00  0.00    +0.064 A 
ATOM     10  N   UNL A   1      -2.467  -1.754   0.126  0.00  0.00    -0.215 NA
ATOM     11  C   UNL A   1      -4.304  -2.504   1.589  0.00  0.00    +0.052 C 
ATOM     12  C   UNL A   1      -2.037   1.899   2.197  0.00  0.00    +0.052 C 
ENDBRANCH   1   4
BRANCH   1  13
ATOM     13  C   UNL A   1       1.645   0.311  -0.604  0.00  0.00    +0.127 A 
ATOM     14  C   UNL A   1       1.893   1.642  -0.248  0.00  0.00    +0.022 A 
ATOM     15  C   UNL A   1       2.753   1.935   0.814  0.00  0.00    +0.019 A 
ATOM     16  C   UNL A   1       3.366   0.898   1.524  0.00  0.00    +0.089 A 
ATOM     17  N   UNL A   1       4.241   1.196   2.604  0.00  0.00    -0.128 NA
ATOM     18  C   UNL A   1       3.119  -0.432   1.171  0.00  0.00    +0.019 A 
ATOM     19  C   UNL A   1       2.259  -0.725   0.108  0.00  0.00    +0.022 A 
ENDBRANCH   1  13
TORSDOF 2
