REMARK  6 active torsions:
REMARK  status: ('A' for Active; 'I' for Inactive)
REMARK    1  A    between atoms: C_2  and  C_3 
REMARK    2  A    between atoms: C_3  and  C_4 
REMARK    3  A    between atoms: C_4  and  C_5 
REMARK    4  A    between atoms: C_5  and  O_7 
REMARK    5  A    between atoms: C_8  and  O_7 
REMARK    6  A    between atoms: C_23  and  O_25 
ROOT
ATOM      1  C   UNL d   1       1.879  -0.817  -1.970  0.00  0.00     0.140 C 
ATOM      2  C   UNL d   1       1.847  -2.338  -1.730  0.00  0.00     0.034 C 
ATOM      3  C   UNL d   1       0.555  -2.644  -0.972  0.00  0.00     0.008 C 
ATOM      4  C   UNL d   1       0.174  -1.301  -0.405  0.00  0.00     0.001 C 
ATOM      5  C   UNL d   1       0.567  -0.257  -1.423  0.00  0.00    -0.013 C 
ATOM      6  C   UNL d   1       0.640   1.097  -0.714  0.00  0.00     0.013 C 
ATOM      7  C   UNL d   1      -0.718   1.435  -0.073  0.00  0.00     0.010 C 
ATOM      8  C   UNL d   1      -1.206   0.339   0.898  0.00  0.00     0.023 C 
ATOM      9  C   UNL d   1      -1.171  -1.086   0.282  0.00  0.00    -0.001 C 
ATOM     10  C   UNL d   1      -2.384  -1.478  -0.595  0.00  0.00     0.010 C 
ATOM     11  C   UNL d   1      -3.472  -0.402  -0.703  0.00  0.00     0.039 C 
ATOM     12  C   UNL d   1      -3.693   0.286   0.607  0.00  0.00    -0.049 A 
ATOM     13  C   UNL d   1      -2.585   0.662   1.381  0.00  0.00    -0.047 A 
ATOM     14  C   UNL d   1      -2.774   1.347   2.586  0.00  0.00     0.011 A 
ATOM     15  C   UNL d   1      -4.069   1.654   3.017  0.00  0.00     0.037 A 
ATOM     16  C   UNL d   1      -5.173   1.283   2.242  0.00  0.00     0.066 A 
ATOM     17  C   UNL d   1      -4.986   0.604   1.034  0.00  0.00     0.044 A 
ATOM     18  C   UNL d   1      -0.415  -0.178  -2.592  0.00  0.00     0.018 C 
ENDROOT
BRANCH   1  19
ATOM     19  O   UNL d   1       3.056  -0.204  -1.426  0.00  0.00    -0.315 OA
BRANCH  19  20
ATOM     20  C   UNL d   1       3.497  -0.318  -0.101  0.00  0.00     0.259 C 
ATOM     21  O   UNL d   1       2.878  -1.024   0.740  0.00  0.00    -0.265 OA
BRANCH  20  22
ATOM     22  C   UNL d   1       4.745   0.383   0.312  0.00  0.00     0.111 C 
BRANCH  22  23
ATOM     23  C   UNL d   1       5.958  -0.520   0.128  0.00  0.00     0.009 C 
BRANCH  23  24
ATOM     24  C   UNL d   1       6.329  -0.664  -1.341  0.00  0.00    -0.004 C 
ATOM     25  C   UNL d   1       6.976   0.610  -1.851  0.00  0.00     0.005 C 
ENDBRANCH  23  24
ENDBRANCH  22  23
ENDBRANCH  20  22
ENDBRANCH  19  20
ENDBRANCH   1  19
BRANCH  16  26
ATOM     26  O   UNL d   1      -6.457   1.592   2.671  0.00  0.00    -0.361 OA
ATOM     27  HO  UNL d   1      -7.206   1.339   2.145  1.00  0.00     0.217 HD
ENDBRANCH  16  26
TORSDOF 6
