REMARK  10 active torsions:
REMARK  status: ('A' for Active; 'I' for Inactive)
REMARK    1  A    between atoms: C_1  and  C_2 
REMARK    2  A    between atoms: C_1  and  N_4 
REMARK       I    between atoms: N_4  and  C_5 
REMARK    3  A    between atoms: N_4  and  N_24 
REMARK       I    between atoms: C_5  and  N_7 
REMARK    4  A    between atoms: C_9  and  N_7 
REMARK    5  A    between atoms: C_10  and  O_22 
REMARK    6  A    between atoms: C_11  and  O_20 
REMARK    7  A    between atoms: C_12  and  C_17 
REMARK    8  A    between atoms: C_14  and  O_15 
REMARK    9  A    between atoms: C_17  and  O_18 
REMARK   10  A    between atoms: N_24  and  O_26 
ROOT
ATOM      1  C   UNL d   1      -0.588   0.370  -0.002  0.00  0.00     0.172 C 
ATOM      2  C   UNL d   1      -1.483  -0.113  -1.147  0.00  0.00     0.177 C 
ATOM      3  C   UNL d   1      -2.922   0.384  -0.983  0.00  0.00     0.180 C 
ATOM      4  C   UNL d   1      -3.374   0.081   0.451  0.00  0.00     0.179 C 
ATOM      5  O   UNL d   1      -2.543   0.751   1.369  0.00  0.00    -0.349 OA
ATOM      6  C   UNL d   1      -1.295   0.100   1.337  0.00  0.00     0.282 C 
ENDROOT
BRANCH   1   7
ATOM      7  N   UNL d   1       0.681  -0.344  -0.054  0.00  0.00    -0.330 N 
ATOM      8  C   UNL d   1       1.911   0.232   0.397  0.00  0.00     0.339 C 
ATOM      9  N   UNL d   1       3.124  -0.529   0.343  0.00  0.00    -0.222 N 
ATOM     10  O   UNL d   1       1.931   1.414   0.835  0.00  0.00    -0.245 OA
ATOM     11  HN  UNL d   1       0.693  -1.294  -0.426  1.00  0.00     0.165 HD
BRANCH   9  12
ATOM     12  C   UNL d   1       3.117  -1.884  -0.203  0.00  0.00     0.171 C 
BRANCH  12  13
ATOM     13  C   UNL d   1       3.706  -1.901  -1.605  0.00  0.00     0.136 C 
ATOM     14 CL   UNL d   1       2.580  -1.161  -2.769  0.00  0.00    -0.129 Cl
ENDBRANCH  12  13
ENDBRANCH   9  12
BRANCH   9  15
ATOM     15  N   UNL d   1       4.318   0.041   0.818  0.00  0.00    -0.204 N 
ATOM     16  HN  UNL d   1       4.308   0.995   1.178  1.00  0.00     0.216 HD
BRANCH  15  17
ATOM     17  O   UNL d   1       5.390  -0.599   0.807  0.00  0.00    -0.274 OA
ATOM     18  HO  UNL d   1       6.197  -0.214   1.128  1.00  0.00     0.246 HD
ENDBRANCH  15  17
ENDBRANCH   9  15
ENDBRANCH   1   7
BRANCH   6  19
ATOM     19  O   UNL d   1      -0.513   0.560   2.397  0.00  0.00    -0.369 OA
ATOM     20  HO  UNL d   1      -0.950   0.394   3.224  1.00  0.00     0.212 HD
ENDBRANCH   6  19
BRANCH   2  21
ATOM     21  O   UNL d   1      -0.962   0.295  -2.377  0.00  0.00    -0.391 OA
ATOM     22  HO  UNL d   1      -1.518  -0.005  -3.088  1.00  0.00     0.210 HD
ENDBRANCH   2  21
BRANCH   3  23
ATOM     23  O   UNL d   1      -2.992   1.759  -1.234  0.00  0.00    -0.390 OA
ATOM     24  HO  UNL d   1      -3.885   2.067  -1.132  1.00  0.00     0.210 HD
ENDBRANCH   3  23
BRANCH   4  25
ATOM     25  C   UNL d   1      -4.822   0.490   0.656  0.00  0.00     0.198 C 
BRANCH  25  26
ATOM     26  O   UNL d   1      -5.264   0.054   1.905  0.00  0.00    -0.398 OA
ATOM     27  HO  UNL d   1      -6.170   0.310   2.034  1.00  0.00     0.209 HD
ENDBRANCH  25  26
ENDBRANCH   4  25
TORSDOF 10
