REMARK  5 active torsions:
REMARK  status: ('A' for Active; 'I' for Inactive)
REMARK       I    between atoms: C_1  and  N_2 
REMARK    1  A    between atoms: C_1  and  C_14 
REMARK    2  A    between atoms: N_2  and  C_4 
REMARK    3  A    between atoms: C_6  and  N_7 
REMARK    4  A    between atoms: C_15  and  O_16 
REMARK    5  A    between atoms: O_16  and  C_17 
ROOT
ATOM      1  C   UNL d   1      -0.599  -0.129   1.330  0.00  0.00     0.260 C 
ATOM      2  N   UNL d   1       0.217  -0.005   0.158  0.00  0.00    -0.303 N 
ATOM      3  HN  UNL d   1      -0.261   0.030  -0.743  1.00  0.00     0.171 HD
ATOM      4  O   UNL d   1      -0.057  -0.175   2.469  0.00  0.00    -0.267 OA
ENDROOT
BRANCH   1   5
ATOM      5  C   UNL d   1      -2.078  -0.203   1.224  0.00  0.00     0.066 A 
ATOM      6  C   UNL d   1      -2.765  -0.157  -0.016  0.00  0.00     0.094 A 
ATOM      7  C   UNL d   1      -4.169  -0.234  -0.022  0.00  0.00     0.038 A 
ATOM      8  C   UNL d   1      -4.888  -0.354   1.167  0.00  0.00     0.003 A 
ATOM      9  C   UNL d   1      -4.213  -0.399   2.385  0.00  0.00     0.001 A 
ATOM     10  C   UNL d   1      -2.821  -0.324   2.411  0.00  0.00     0.020 A 
BRANCH   6  11
ATOM     11  O   UNL d   1      -2.039  -0.037  -1.214  0.00  0.00    -0.278 OA
BRANCH  11  12
ATOM     12  C   UNL d   1      -2.566   0.021  -2.513  0.00  0.00     0.260 C 
ATOM     13  C   UNL d   1      -1.633   0.150  -3.662  0.00  0.00     0.126 C 
ATOM     14  O   UNL d   1      -3.806  -0.032  -2.732  0.00  0.00    -0.265 OA
ENDBRANCH  11  12
ENDBRANCH   6  11
ENDBRANCH   1   5
BRANCH   2  15
ATOM     15  C   UNL d   1       1.645   0.075   0.147  0.00  0.00     0.153 A 
ATOM     16  S   UNL d   1       2.555   0.220  -1.259  0.00  0.00    -0.028 SA
ATOM     17  C   UNL d   1       4.002   0.241  -0.399  0.00  0.00     0.162 A 
ATOM     18  C   UNL d   1       3.739   0.135   0.963  0.00  0.00     0.134 A 
ATOM     19  N   UNL d   1       2.415   0.042   1.259  0.00  0.00    -0.343 N 
ATOM     20  HN  UNL d   1       2.047  -0.042   2.206  1.00  0.00     0.167 HD
BRANCH  17  21
ATOM     21  N   UNL d   1       5.302   0.352  -0.983  0.00  0.00    -0.107 N 
ATOM     22  O   UNL d   1       5.440   0.452  -2.347  0.00  0.00    -0.531 OA
ATOM     23  O   UNL d   1       6.319   0.360  -0.260  0.00  0.00    -0.531 OA
ENDBRANCH  17  21
ENDBRANCH   2  15
TORSDOF 5
