REMARK  29 active torsions:
REMARK  status: ('A' for Active; 'I' for Inactive)
REMARK    1  A    between atoms: C_4  and  O_5 
REMARK    2  A    between atoms: C_6  and  O_5 
REMARK    3  A    between atoms: C_7  and  O_8 
REMARK    4  A    between atoms: C_10  and  O_11 
REMARK    5  A    between atoms: C_13  and  O_14 
REMARK    6  A    between atoms: O_14  and  C_15 
REMARK    7  A    between atoms: C_16  and  C_15 
REMARK    8  A    between atoms: C_18  and  O_19 
REMARK    9  A    between atoms: O_19  and  C_20 
REMARK   10  A    between atoms: C_22  and  C_20 
REMARK   11  A    between atoms: C_38  and  O_39 
REMARK   12  A    between atoms: C_40  and  O_39 
REMARK   13  A    between atoms: C_43  and  O_44 
REMARK   14  A    between atoms: C_46  and  O_47 
REMARK   15  A    between atoms: C_49  and  O_50 
REMARK   16  A    between atoms: C_51  and  O_50 
REMARK   17  A    between atoms: C_55  and  O_56 
REMARK   18  A    between atoms: C_58  and  O_59 
REMARK   19  A    between atoms: C_61  and  O_62 
REMARK   20  A    between atoms: C_64  and  C_66 
REMARK   21  A    between atoms: C_66  and  O_67 
REMARK   22  A    between atoms: C_78  and  O_79 
REMARK   23  A    between atoms: C_81  and  O_82 
REMARK   24  A    between atoms: C_84  and  O_85 
REMARK   25  A    between atoms: C_88  and  C_89 
REMARK   26  A    between atoms: C_89  and  O_90 
REMARK   27  A    between atoms: C_92  and  O_93 
REMARK   28  A    between atoms: C_95  and  O_96 
REMARK   29  A    between atoms: C_98  and  O_99 
ROOT
ATOM      1  C   UNL d   1       0.886  -0.361  -2.891  0.00  0.00     0.055 C 
ATOM      2  C   UNL d   1       1.673  -1.313  -3.809  0.00  0.00     0.021 C 
ATOM      3  C   UNL d   1       1.363  -1.107  -5.292  0.00  0.00     0.010 C 
ATOM      4  C   UNL d   1      -0.120  -1.362  -5.603  0.00  0.00    -0.047 C 
ATOM      5  C   UNL d   1      -0.335  -2.841  -5.861  0.00  0.00     0.015 C 
ATOM      6  C   UNL d   1      -0.482  -0.598  -6.854  0.00  0.00     0.015 C 
ATOM      7  C   UNL d   1      -1.059  -0.929  -4.466  0.00  0.00     0.019 C 
ATOM      8  C   UNL d   1      -0.417   0.136  -3.573  0.00  0.00     0.034 C 
ATOM      9  C   UNL d   1      -1.409   0.742  -2.614  0.00  0.00    -0.069 C 
ATOM     10  C   UNL d   1      -2.163   1.750  -3.078  0.00  0.00    -0.022 C 
ATOM     11  C   UNL d   1      -3.187   2.481  -2.254  0.00  0.00     0.033 C 
ATOM     12  C   UNL d   1      -3.576   1.736  -0.965  0.00  0.00     0.007 C 
ATOM     13  C   UNL d   1      -4.533   2.571  -0.067  0.00  0.00    -0.035 C 
ATOM     14  C   UNL d   1      -3.951   3.947   0.228  0.00  0.00     0.016 C 
ATOM     15  C   UNL d   1      -5.858   2.798  -0.793  0.00  0.00     0.012 C 
ATOM     16  C   UNL d   1      -6.580   1.485  -1.059  0.00  0.00     0.034 C 
ATOM     17  C   UNL d   1      -6.731   0.575   0.181  0.00  0.00     0.135 C 
ATOM     18  C   UNL d   1      -6.154   1.144   1.505  0.00  0.00     0.008 C 
ATOM     19  C   UNL d   1      -7.108   2.180   2.095  0.00  0.00     0.020 C 
ATOM     20  C   UNL d   1      -4.792   1.873   1.290  0.00  0.00     0.007 C 
ATOM     21  C   UNL d   1      -3.546   1.302   1.965  0.00  0.00     0.007 C 
ATOM     22  C   UNL d   1      -2.784   0.393   1.021  0.00  0.00     0.011 C 
ATOM     23  C   UNL d   1      -2.337   1.127  -0.257  0.00  0.00    -0.028 C 
ATOM     24  C   UNL d   1      -1.345   2.243   0.127  0.00  0.00     0.016 C 
ATOM     25  C   UNL d   1      -1.650   0.118  -1.240  0.00  0.00    -0.013 C 
ATOM     26  C   UNL d   1      -2.544  -1.111  -1.443  0.00  0.00     0.021 C 
ATOM     27  C   UNL d   1      -0.308  -0.352  -0.642  0.00  0.00     0.016 C 
ATOM     28  C   UNL d   1       0.545  -1.160  -1.623  0.00  0.00     0.022 C 
ENDROOT
BRANCH   1  29
ATOM     29  C   UNL d   1       1.777   0.822  -2.581  0.00  0.00     0.270 C 
ATOM     30  O   UNL d   1       2.008   1.680  -3.481  0.00  0.00    -0.264 OA
BRANCH  29  31
ATOM     31  O   UNL d   1       2.379   0.952  -1.325  0.00  0.00    -0.286 OA
BRANCH  31  32
ATOM     32  C   UNL d   1       3.333   1.968  -1.040  0.00  0.00     0.301 C 
ATOM     33  O   UNL d   1       4.553   1.703  -1.731  0.00  0.00    -0.348 OA
ATOM     34  C   UNL d   1       5.525   1.012  -0.948  0.00  0.00     0.180 C 
ATOM     35  C   UNL d   1       4.927   0.099   0.132  0.00  0.00     0.180 C 
ATOM     36  C   UNL d   1       4.149   0.941   1.138  0.00  0.00     0.183 C 
ATOM     37  C   UNL d   1       3.471   2.148   0.480  0.00  0.00     0.205 C 
BRANCH  34  38
ATOM     38  C   UNL d   1       6.427   0.207  -1.875  0.00  0.00     0.205 C 
BRANCH  38  39
ATOM     39  O   UNL d   1       7.358   1.041  -2.508  0.00  0.00    -0.356 OA
BRANCH  39  40
ATOM     40  C   UNL d   1       8.586   0.976  -1.821  0.00  0.00     0.291 C 
ATOM     41  C   UNL d   1       9.462  -0.246  -2.170  0.00  0.00     0.204 C 
ATOM     42  C   UNL d   1      10.456  -0.560  -1.051  0.00  0.00     0.183 C 
ATOM     43  C   UNL d   1      10.895   0.719  -0.317  0.00  0.00     0.187 C 
ATOM     44  C   UNL d   1       9.701   1.617   0.094  0.00  0.00     0.180 C 
ATOM     45  O   UNL d   1       8.452   1.208  -0.433  0.00  0.00    -0.348 OA
BRANCH  41  46
ATOM     46  O   UNL d   1       8.694  -1.375  -2.444  0.00  0.00    -0.388 OA
ATOM     47  HO  UNL d   1       8.076  -1.180  -3.139  1.00  0.00     0.210 HD
ENDBRANCH  41  46
BRANCH  42  48
ATOM     48  O   UNL d   1      11.569  -1.218  -1.581  0.00  0.00    -0.390 OA
ATOM     49  HO  UNL d   1      11.299  -2.007  -2.034  1.00  0.00     0.210 HD
ENDBRANCH  42  48
BRANCH  43  50
ATOM     50  O   UNL d   1      11.794   0.476   0.748  0.00  0.00    -0.348 OA
BRANCH  50  51
ATOM     51  C   UNL d   1      11.146  -0.289   1.742  0.00  0.00     0.292 C 
ATOM     52  O   UNL d   1      10.691   0.521   2.808  0.00  0.00    -0.351 OA
ATOM     53  C   UNL d   1      11.792   1.169   3.403  0.00  0.00     0.152 C 
ATOM     54  C   UNL d   1      11.274   2.186   4.398  0.00  0.00     0.042 C 
ATOM     55  C   UNL d   1      12.703   0.157   4.099  0.00  0.00     0.178 C 
ATOM     56  C   UNL d   1      13.194  -0.861   3.070  0.00  0.00     0.183 C 
ATOM     57  C   UNL d   1      12.037  -1.429   2.248  0.00  0.00     0.204 C 
BRANCH  55  58
ATOM     58  O   UNL d   1      13.792   0.811   4.661  0.00  0.00    -0.390 OA
ATOM     59  HO  UNL d   1      13.487   1.444   5.301  1.00  0.00     0.210 HD
ENDBRANCH  55  58
BRANCH  56  60
ATOM     60  O   UNL d   1      13.902  -1.889   3.698  0.00  0.00    -0.390 OA
ATOM     61  HO  UNL d   1      14.621  -1.536   4.209  1.00  0.00     0.210 HD
ENDBRANCH  56  60
BRANCH  57  62
ATOM     62  O   UNL d   1      11.278  -2.307   3.024  0.00  0.00    -0.388 OA
ATOM     63  HO  UNL d   1      11.831  -3.013   3.338  1.00  0.00     0.210 HD
ENDBRANCH  57  62
ENDBRANCH  50  51
ENDBRANCH  43  50
BRANCH  44  64
ATOM     64  C   UNL d   1       9.974   3.108  -0.103  0.00  0.00     0.198 C 
BRANCH  64  65
ATOM     65  O   UNL d   1      10.251   3.401  -1.442  0.00  0.00    -0.398 OA
ATOM     66  HO  UNL d   1      10.421   4.328  -1.565  1.00  0.00     0.209 HD
ENDBRANCH  64  65
ENDBRANCH  44  64
ENDBRANCH  39  40
ENDBRANCH  38  39
ENDBRANCH  34  38
BRANCH  35  67
ATOM     67  O   UNL d   1       5.932  -0.599   0.804  0.00  0.00    -0.390 OA
ATOM     68  HO  UNL d   1       6.417  -1.123   0.177  1.00  0.00     0.210 HD
ENDBRANCH  35  67
BRANCH  36  69
ATOM     69  O   UNL d   1       3.197   0.149   1.780  0.00  0.00    -0.390 OA
ATOM     70  HO  UNL d   1       3.617  -0.599   2.187  1.00  0.00     0.210 HD
ENDBRANCH  36  69
BRANCH  37  71
ATOM     71  O   UNL d   1       4.205   3.299   0.758  0.00  0.00    -0.388 OA
ATOM     72  HO  UNL d   1       4.290   3.410   1.698  1.00  0.00     0.210 HD
ENDBRANCH  37  71
ENDBRANCH  31  32
ENDBRANCH  29  31
ENDBRANCH   1  29
BRANCH  18  73
ATOM     73  C   UNL d   1      -5.996  -0.011   2.515  0.00  0.00     0.176 C 
BRANCH  73  74
ATOM     74  O   UNL d   1      -7.231  -0.554   2.891  0.00  0.00    -0.400 OA
ATOM     75  HO  UNL d   1      -7.133  -1.266   3.513  1.00  0.00     0.209 HD
ENDBRANCH  73  74
ENDBRANCH  18  73
BRANCH  17  76
ATOM     76  O   UNL d   1      -8.083   0.211   0.327  0.00  0.00    -0.352 OA
BRANCH  76  77
ATOM     77  C   UNL d   1      -8.200  -1.055  -0.264  0.00  0.00     0.291 C 
ATOM     78  O   UNL d   1      -8.722  -0.917  -1.582  0.00  0.00    -0.356 OA
ATOM     79  C   UNL d   1      -9.281  -2.124  -2.092  0.00  0.00     0.205 C 
ATOM     80  C   UNL d   1      -8.736  -3.410  -1.460  0.00  0.00     0.173 C 
ATOM     81  C   UNL d   1      -8.957  -3.412   0.067  0.00  0.00     0.182 C 
ATOM     82  C   UNL d   1      -9.038  -1.981   0.634  0.00  0.00     0.211 C 
BRANCH  80  83
ATOM     83  O   UNL d   1      -9.305  -4.528  -2.067  0.00  0.00    -0.391 OA
ATOM     84  HO  UNL d   1      -8.966  -5.325  -1.675  1.00  0.00     0.210 HD
ENDBRANCH  80  83
BRANCH  81  85
ATOM     85  O   UNL d   1     -10.087  -4.149   0.427  0.00  0.00    -0.390 OA
ATOM     86  HO  UNL d   1     -10.224  -4.151   1.367  1.00  0.00     0.210 HD
ENDBRANCH  81  85
BRANCH  82  87
ATOM     87  O   UNL d   1     -10.374  -1.541   0.648  0.00  0.00    -0.346 OA
BRANCH  87  88
ATOM     88  C   UNL d   1     -10.681  -1.180   1.970  0.00  0.00     0.292 C 
ATOM     89  O   UNL d   1     -10.595  -2.310   2.830  0.00  0.00    -0.351 OA
ATOM     90  C   UNL d   1     -10.858  -1.923   4.167  0.00  0.00     0.152 C 
ATOM     91  C   UNL d   1      -9.767  -1.025   4.740  0.00  0.00     0.042 C 
ATOM     92  C   UNL d   1     -12.256  -1.308   4.360  0.00  0.00     0.178 C 
ATOM     93  C   UNL d   1     -12.987  -1.196   3.029  0.00  0.00     0.183 C 
ATOM     94  C   UNL d   1     -12.084  -0.546   1.976  0.00  0.00     0.204 C 
BRANCH  92  95
ATOM     95  O   UNL d   1     -12.996  -2.104   5.239  0.00  0.00    -0.390 OA
ATOM     96  HO  UNL d   1     -13.858  -1.724   5.359  1.00  0.00     0.210 HD
ENDBRANCH  92  95
BRANCH  93  97
ATOM     97  O   UNL d   1     -14.181  -0.483   3.181  0.00  0.00    -0.390 OA
ATOM     98  HO  UNL d   1     -14.637  -0.413   2.351  1.00  0.00     0.210 HD
ENDBRANCH  93  97
BRANCH  94  99
ATOM     99  O   UNL d   1     -11.973   0.829   2.200  0.00  0.00    -0.388 OA
ATOM    100  HO  UNL d   1     -11.413   1.232   1.547  1.00  0.00     0.210 HD
ENDBRANCH  94  99
ENDBRANCH  87  88
ENDBRANCH  82  87
ENDBRANCH  76  77
ENDBRANCH  17  76
TORSDOF 29
