REMARK  3 active torsions:
REMARK  status: ('A' for Active; 'I' for Inactive)
REMARK    1  A    between atoms: C_19  and  C_20 
REMARK    2  A    between atoms: C_19  and  O_23 
REMARK    3  A    between atoms: C_20  and  C_21 
ROOT
ATOM      1  C   UNL d   1       2.159   1.654  -0.775  0.00  0.00     0.023 C 
ATOM      2  C   UNL d   1       1.972   0.164  -0.443  0.00  0.00     0.009 C 
ATOM      3  C   UNL d   1       1.191  -0.008   0.846  0.00  0.00     0.009 C 
ATOM      4  C   UNL d   1      -0.163   0.698   0.786  0.00  0.00     0.025 C 
ATOM      5  C   UNL d   1      -0.914   0.204  -0.449  0.00  0.00    -0.047 C 
ATOM      6  C   UNL d   1      -0.148  -0.407  -1.577  0.00  0.00     0.005 C 
ATOM      7  C   UNL d   1       1.192  -0.468  -1.567  0.00  0.00    -0.013 C 
ATOM      8  C   UNL d   1      -2.255   0.322  -0.511  0.00  0.00    -0.045 C 
ATOM      9  C   UNL d   1      -3.017   0.824   0.669  0.00  0.00    -0.048 C 
ATOM     10  C   UNL d   1      -2.316   1.145   1.957  0.00  0.00     0.040 C 
ATOM     11  C   UNL d   1      -0.976   0.423   2.048  0.00  0.00     0.014 C 
ATOM     12  C   UNL d   1      -4.329   1.050   0.581  0.00  0.00     0.057 C 
ATOM     13  C   UNL d   1      -5.051   0.848  -0.684  0.00  0.00     0.150 C 
ATOM     14  O   UNL d   1      -6.305   0.943  -0.713  0.00  0.00    -0.293 OA
ATOM     15  C   UNL d   1      -4.289   0.618  -1.954  0.00  0.00     0.087 C 
ATOM     16  C   UNL d   1      -3.030  -0.208  -1.694  0.00  0.00     0.047 C 
ATOM     17  C   UNL d   1       2.160   0.349   1.951  0.00  0.00     0.009 C 
ATOM     18  C   UNL d   1       3.519  -0.104   1.404  0.00  0.00     0.040 C 
ATOM     19  C   UNL d   1       3.320  -0.484  -0.075  0.00  0.00     0.072 C 
ENDROOT
BRANCH  19  20
ATOM     20  C   UNL d   1       3.272  -2.018  -0.219  0.00  0.00     0.065 C 
BRANCH  20  21
ATOM     21  C   UNL d   1       4.596  -2.683   0.018  0.00  0.00    -0.034 C 
ATOM     22  C   UNL d   1       5.047  -2.895   1.252  0.00  0.00     0.007 C 
ENDBRANCH  20  21
ENDBRANCH  19  20
BRANCH  19  23
ATOM     23  O   UNL d   1       4.363   0.032  -0.853  0.00  0.00    -0.388 OA
ATOM     24  HO  UNL d   1       4.241  -0.203  -1.765  1.00  0.00     0.210 HD
ENDBRANCH  19  23
TORSDOF 3
