REMARK  6 active torsions:
REMARK  status: ('A' for Active; 'I' for Inactive)
REMARK    1  A    between atoms: CA_3  and  C_35 
REMARK    2  A    between atoms: CA_7  and  N_10 
REMARK       I    between atoms: N_10  and  C_12 
REMARK    3  A    between atoms: C_12  and  CA_14 
REMARK    4  A    between atoms: CA_14  and  C_15 
REMARK    5  A    between atoms: CA_14  and  N_21 
REMARK       I    between atoms: N_21  and  C_23 
REMARK       I    between atoms: C_23  and  N_25 
REMARK    6  A    between atoms: N_28  and  S_31 
ROOT
ATOM      1  CA  UNL d   1       0.404   1.160   0.602  0.00  0.00     0.211 C 
ENDROOT
BRANCH   1   2
ATOM      2  C   UNL d   1      -0.773   0.344   1.032  0.00  0.00     0.245 C 
ATOM      3  N   UNL d   1      -2.058   0.632   0.480  0.00  0.00    -0.343 N 
ATOM      4  HN  UNL d   1      -2.146   1.393  -0.193  1.00  0.00     0.163 HD
ATOM      5  O   UNL d   1      -0.636  -0.568   1.892  0.00  0.00    -0.271 OA
BRANCH   3   6
ATOM      6  CA  UNL d   1      -3.248  -0.122   0.845  0.00  0.00     0.210 A 
ATOM      7  C   UNL d   1      -4.375   0.380   0.119  0.00  0.00     0.183 A 
ATOM      8  N   UNL d   1      -4.574  -0.835  -0.609  0.00  0.00    -0.318 N 
ATOM      9  S   UNL d   1      -5.876   0.521   1.135  0.00  0.00    -0.129 SA
ATOM     10  CA  UNL d   1      -5.889  -1.369  -0.882  0.00  0.00     0.207 C 
ATOM     11  C   UNL d   1      -3.340  -1.361   0.013  0.00  0.00     0.247 A 
ATOM     12  C   UNL d   1      -6.854  -0.440  -0.104  0.00  0.00     0.033 C 
ATOM     13  C   UNL d   1      -7.465   0.539  -1.088  0.00  0.00     0.029 C 
ATOM     14  C   UNL d   1      -7.993  -1.163   0.601  0.00  0.00     0.029 C 
ATOM     15  O   UNL d   1      -2.683  -2.432  -0.070  0.00  0.00    -0.271 OA
BRANCH  10  16
ATOM     16  C   UNL d   1      -5.964  -2.829  -0.523  0.00  0.00     0.198 C 
ATOM     17  O   UNL d   1      -5.731  -3.216   0.654  0.00  0.00    -0.646 OA
ATOM     18  OXT UNL d   1      -6.290  -3.758  -1.500  0.00  0.00    -0.646 OA
ENDBRANCH  10  16
ENDBRANCH   3   6
ENDBRANCH   1   2
BRANCH   1  19
ATOM     19  C   UNL d   1       0.769   2.174   1.645  0.00  0.00    -0.026 A 
ATOM     20  C   UNL d   1       0.499   3.526   1.405  0.00  0.00     0.010 A 
ATOM     21  C   UNL d   1       0.824   4.489   2.366  0.00  0.00     0.001 A 
ATOM     22  C   UNL d   1       1.416   4.102   3.572  0.00  0.00     0.000 A 
ATOM     23  C   UNL d   1       1.685   2.752   3.818  0.00  0.00     0.001 A 
ATOM     24  C   UNL d   1       1.361   1.789   2.858  0.00  0.00     0.010 A 
ENDBRANCH   1  19
BRANCH   1  25
ATOM     25  N   UNL d   1       1.536   0.296   0.285  0.00  0.00    -0.325 N 
ATOM     26  C   UNL d   1       2.676   0.752  -0.449  0.00  0.00     0.327 C 
ATOM     27  O   UNL d   1       2.713   1.933  -0.888  0.00  0.00    -0.247 OA
ATOM     28  N   UNL d   1       3.773  -0.139  -0.682  0.00  0.00    -0.249 N 
ATOM     29  C   UNL d   1       4.979   0.154  -1.356  0.00  0.00     0.342 A 
ATOM     30  C   UNL d   1       3.841  -1.521  -0.218  0.00  0.00     0.159 A 
ATOM     31  N   UNL d   1       5.854  -0.947  -1.372  0.00  0.00    -0.225 N 
ATOM     32  O   UNL d   1       5.243   1.268  -1.883  0.00  0.00    -0.245 OA
ATOM     33  C   UNL d   1       5.213  -2.059  -0.686  0.00  0.00     0.167 A 
ATOM     34  HN  UNL d   1       1.514  -0.673   0.601  1.00  0.00     0.165 HD
BRANCH  31  35
ATOM     35  S   UNL d   1       7.409  -1.001  -2.131  0.00  0.00     0.232 S 
ATOM     36  O   UNL d   1       8.114  -2.270  -1.742  0.00  0.00    -0.206 OA
ATOM     37  O   UNL d   1       8.229   0.174  -1.679  0.00  0.00    -0.206 OA
ATOM     38  C   UNL d   1       7.214  -0.959  -3.897  0.00  0.00     0.186 C 
ENDBRANCH  31  35
ENDBRANCH   1  25
TORSDOF 6
