REMARK  2 active torsions:
REMARK  status: ('A' for Active; 'I' for Inactive)
REMARK    1  A    between atoms: C_4  and  C_24 
REMARK    2  A    between atoms: C_24  and  O_26 
ROOT
ATOM      1  C   UNL d   1       0.384  -0.732  -0.716  0.00  0.00     0.273 C 
ATOM      2  C   UNL d   1      -0.461   0.501  -0.370  0.00  0.00     0.052 C 
ATOM      3  C   UNL d   1      -1.643   0.592  -1.325  0.00  0.00     0.037 C 
ATOM      4  C   UNL d   1      -2.489   1.833  -1.100  0.00  0.00     0.043 C 
ATOM      5  C   UNL d   1      -3.821   1.766  -1.252  0.00  0.00     0.148 C 
ATOM      6  O   UNL d   1      -4.473   0.568  -1.583  0.00  0.00    -0.357 OA
ATOM      7  C   UNL d   1      -3.763  -0.611  -1.962  0.00  0.00     0.130 C 
ATOM      8  C   UNL d   1      -3.513  -0.597  -3.466  0.00  0.00     0.040 C 
ATOM      9  C   UNL d   1      -2.463  -0.689  -1.162  0.00  0.00     0.052 C 
ATOM     10  C   UNL d   1      -1.611  -1.915  -1.501  0.00  0.00     0.281 C 
ATOM     11  N   UNL d   1      -0.406  -1.991  -0.664  0.00  0.00     0.099 N 
ATOM     12  C   UNL d   1      -0.783  -2.347   0.717  0.00  0.00     0.278 C 
ATOM     13  C   UNL d   1       0.459  -2.710   1.546  0.00  0.00     0.072 C 
ATOM     14  C   UNL d   1       1.528  -1.692   1.305  0.00  0.00    -0.019 A 
ATOM     15  C   UNL d   1       1.537  -0.824   0.233  0.00  0.00     0.050 A 
ATOM     16  N   UNL d   1       2.650  -0.053   0.203  0.00  0.00    -0.357 N 
ATOM     17  HN  UNL d   1       2.895   0.675  -0.467  1.00  0.00     0.166 HD
ATOM     18  C   UNL d   1       3.358  -0.478   1.272  0.00  0.00     0.043 A 
ATOM     19  C   UNL d   1       4.606  -0.009   1.679  0.00  0.00     0.030 A 
ATOM     20  C   UNL d   1       5.186  -0.596   2.819  0.00  0.00     0.002 A 
ATOM     21  C   UNL d   1       4.518  -1.625   3.518  0.00  0.00     0.001 A 
ATOM     22  C   UNL d   1       3.259  -2.082   3.089  0.00  0.00     0.014 A 
ATOM     23  C   UNL d   1       2.711  -1.478   1.960  0.00  0.00    -0.001 A 
ENDROOT
BRANCH   4  24
ATOM     24  C   UNL d   1      -1.865   3.155  -0.872  0.00  0.00     0.291 C 
ATOM     25  O   UNL d   1      -2.583   4.151  -0.576  0.00  0.00    -0.260 OA
BRANCH  24  26
ATOM     26  O   UNL d   1      -0.482   3.307  -1.000  0.00  0.00    -0.323 OA
ATOM     27  C   UNL d   1       0.161   4.555  -0.792  0.00  0.00     0.213 C 
ENDBRANCH  24  26
ENDBRANCH   4  24
TORSDOF 2
