REMARK  5 active torsions:
REMARK  status: ('A' for Active; 'I' for Inactive)
REMARK    1  A    between atoms: C_2  and  C_3 
REMARK    2  A    between atoms: C_4  and  C_5 
REMARK    3  A    between atoms: C_5  and  C_7 
REMARK    4  A    between atoms: C_7  and  C_18 
REMARK    5  A    between atoms: C_18  and  C_19 
ROOT
ATOM      1  C   UNL d   1       0.197   0.667  -0.267  0.00  0.00     0.139 C 
ATOM      2  C   UNL d   1      -0.286  -0.452  -1.181  0.00  0.00     0.245 C 
ATOM      3  O   UNL d   1       0.418  -0.811  -2.163  0.00  0.00    -0.272 OA
ATOM      4  N   UNL d   1      -1.565  -1.059  -1.008  0.00  0.00    -0.278 N 
ATOM      5  HN  UNL d   1      -1.886  -1.744  -1.693  1.00  0.00     0.173 HD
ATOM      6  C   UNL d   1      -2.406  -0.735   0.091  0.00  0.00     0.331 C 
ATOM      7  O   UNL d   1      -3.551  -1.256   0.170  0.00  0.00    -0.246 OA
ATOM      8  N   UNL d   1      -1.941   0.159   1.104  0.00  0.00    -0.273 N 
ATOM      9  C   UNL d   1      -0.636   0.753   1.009  0.00  0.00     0.247 C 
ATOM     10  O   UNL d   1      -0.187   1.408   1.991  0.00  0.00    -0.271 OA
ATOM     11  C   UNL d   1      -2.777   0.430   2.267  0.00  0.00     0.164 C 
ENDROOT
BRANCH   1  12
ATOM     12  C   UNL d   1       1.694   0.456   0.120  0.00  0.00     0.088 C 
ATOM     13  C   UNL d   1       2.670   0.617  -1.039  0.00  0.00     0.025 C 
BRANCH  12  14
ATOM     14  C   UNL d   1       1.933  -0.828   0.800  0.00  0.00    -0.100 C 
ATOM     15  C   UNL d   1       2.118  -1.880   1.357  0.00  0.00    -0.106 C 
BRANCH  15  16
ATOM     16  C   UNL d   1       2.337  -3.159   2.033  0.00  0.00     0.089 C 
ATOM     17  C   UNL d   1       1.013  -3.873   2.208  0.00  0.00     0.018 C 
ENDBRANCH  15  16
ENDBRANCH  12  14
ENDBRANCH   1  12
BRANCH   1  18
ATOM     18  C   UNL d   1       0.011   1.980  -1.051  0.00  0.00     0.057 C 
BRANCH  18  19
ATOM     19  C   UNL d   1       0.528   3.192  -0.337  0.00  0.00    -0.035 C 
ATOM     20  C   UNL d   1       0.430   4.389  -0.904  0.00  0.00     0.007 C 
ENDBRANCH  18  19
ENDBRANCH   1  18
TORSDOF 5
