REMARK  2 active torsions:
REMARK  status: ('A' for Active; 'I' for Inactive)
REMARK    1  A    between atoms: C_2  and  N_4 
REMARK       I    between atoms: N_4  and  C_6 
REMARK       I    between atoms: C_6  and  N_7 
REMARK       I    between atoms: N_7  and  C_9 
REMARK       I    between atoms: C_9  and  N_10 
REMARK    2  A    between atoms: N_10  and  C_12 
ROOT
ATOM      1  N   UNL d   1      -4.358  -0.373   0.003  0.00  0.00    -0.222 N 
ATOM      2  HN  UNL d   1      -4.429  -0.907  -0.863  1.00  0.00     0.178 HD
ATOM      3  C   UNL d   1      -3.057  -0.010   0.473  0.00  0.00     0.686 C 
ATOM      4  N   UNL d   1      -1.912  -0.386  -0.304  0.00  0.00    -0.023 N 
ATOM      5  HN  UNL d   1      -2.094  -0.903  -1.164  1.00  0.00     0.203 HD
ATOM      6  C   UNL d   1      -0.537  -0.111  -0.001  0.00  0.00     0.690 C 
ATOM      7  N   UNL d   1       0.470  -0.581  -0.907  0.00  0.00    -0.192 N 
ATOM      8  HN  UNL d   1       0.136  -1.089  -1.726  1.00  0.00     0.184 HD
ATOM      9  N   UNL d   1      -2.924   0.630   1.590  0.00  0.00    -0.234 N 
ATOM     10  HN1 UNL d   1      -1.996   0.890   1.925  1.00  0.00     0.174 HD
ATOM     11  HN2 UNL d   1      -3.739   0.898   2.142  1.00  0.00     0.174 HD
ATOM     12  N   UNL d   1      -0.216   0.551   1.064  0.00  0.00    -0.234 N 
ATOM     13  HN1 UNL d   1       0.762   0.746   1.279  1.00  0.00     0.174 HD
ATOM     14  HN2 UNL d   1      -0.932   0.885   1.708  1.00  0.00     0.174 HD
ENDROOT
BRANCH   7  15
ATOM     15  C   UNL d   1       1.893  -0.421  -0.799  0.00  0.00     0.051 A 
ATOM     16  C   UNL d   1       2.488   0.253   0.277  0.00  0.00     0.055 A 
ATOM     17  C   UNL d   1       3.877   0.391   0.352  0.00  0.00     0.058 A 
ATOM     18  C   UNL d   1       4.686  -0.151  -0.661  0.00  0.00     0.055 A 
ATOM     19 CL   UNL d   1       4.567   1.245   1.722  0.00  0.00    -0.082 Cl
ATOM     20  C   UNL d   1       4.095  -0.823  -1.734  0.00  0.00     0.028 A 
ATOM     21 CL   UNL d   1       6.436  -0.006  -0.616  0.00  0.00    -0.083 Cl
ATOM     22  C   UNL d   1       2.706  -0.957  -1.802  0.00  0.00     0.032 A 
ENDBRANCH   7  15
BRANCH   1  23
ATOM     23  C   UNL d   1      -5.587  -0.020   0.700  0.00  0.00     0.091 C 
ATOM     24  C   UNL d   1      -6.728  -0.854   0.159  0.00  0.00     0.032 C 
ATOM     25  C   UNL d   1      -5.899   1.449   0.485  0.00  0.00     0.032 C 
ENDBRANCH   1  23
TORSDOF 2
