REMARK  4 active torsions:
REMARK  status: ('A' for Active; 'I' for Inactive)
REMARK    1  A    between atoms: C_2  and  C_3 
REMARK    2  A    between atoms: C_2  and  C_6 
REMARK    3  A    between atoms: C_10  and  C_12 
REMARK    4  A    between atoms: C_12  and  C_14 
ROOT
ATOM      1  C   UNL d   1      -1.799  -0.678  -0.008  0.00  0.00    -0.043 A 
ATOM      2  C   UNL d   1      -2.198  -1.908  -0.552  0.00  0.00     0.008 A 
ATOM      3  C   UNL d   1      -1.262  -2.735  -1.175  0.00  0.00     0.002 A 
ATOM      4  C   UNL d   1       0.076  -2.339  -1.255  0.00  0.00     0.015 A 
ATOM      5  C   UNL d   1       0.494  -1.116  -0.710  0.00  0.00     0.015 A 
ATOM      6  C   UNL d   1      -0.459  -0.288  -0.097  0.00  0.00     0.023 A 
ENDROOT
BRANCH   5   7
ATOM      7  C   UNL d   1       1.916  -0.707  -0.835  0.00  0.00     0.192 C 
ATOM      8  O   UNL d   1       2.638  -1.304  -1.681  0.00  0.00    -0.287 OA
BRANCH   7   9
ATOM      9  C   UNL d   1       2.532   0.369  -0.017  0.00  0.00     0.015 A 
ATOM     10  C   UNL d   1       3.755   0.930  -0.420  0.00  0.00     0.015 A 
ATOM     11  C   UNL d   1       4.369   1.926   0.345  0.00  0.00     0.001 A 
ATOM     12  C   UNL d   1       3.769   2.368   1.526  0.00  0.00     0.000 A 
ATOM     13  C   UNL d   1       2.558   1.811   1.944  0.00  0.00     0.001 A 
ATOM     14  C   UNL d   1       1.946   0.815   1.178  0.00  0.00     0.015 A 
ENDBRANCH   7   9
ENDBRANCH   5   7
BRANCH   1  15
ATOM     15  C   UNL d   1      -2.781   0.239   0.654  0.00  0.00     0.115 C 
ATOM     16  C   UNL d   1      -3.493  -0.439   1.814  0.00  0.00     0.026 C 
BRANCH  15  17
ATOM     17  C   UNL d   1      -3.756   0.813  -0.326  0.00  0.00     0.181 C 
ATOM     18  O   UNL d   1      -3.655   2.150  -0.688  0.00  0.00    -0.647 OA
ATOM     19  O   UNL d   1      -4.652   0.093  -0.841  0.00  0.00    -0.647 OA
ENDBRANCH  15  17
ENDBRANCH   1  15
TORSDOF 4
