REMARK  6 active torsions:
REMARK  status: ('A' for Active; 'I' for Inactive)
REMARK    1  A    between atoms: C_2  and  N_3 
REMARK    2  A    between atoms: C_2  and  C_21 
REMARK    3  A    between atoms: C_6  and  N_3 
REMARK    4  A    between atoms: N_9  and  C_11 
REMARK    5  A    between atoms: C_14  and  C_15 
REMARK    6  A    between atoms: C_15  and  C_16 
ROOT
ATOM      1  C   UNL d   1       0.959  -0.878  -0.075  0.00  0.00     0.206 C 
ATOM      2  C   UNL d   1       0.676  -0.209   1.265  0.00  0.00     0.054 C 
ATOM      3  C   UNL d   1      -0.827  -0.021   1.349  0.00  0.00     0.125 C 
ATOM      4  N   UNL d   1      -1.383  -0.816   0.273  0.00  0.00    -0.379 N 
ATOM      5  C   UNL d   1      -0.369  -1.417  -0.572  0.00  0.00     0.156 C 
ENDROOT
BRANCH   1   6
ATOM      6  N   UNL d   1       1.456   0.120  -1.019  0.00  0.00    -0.061 N 
ATOM      7  HN2 UNL d   1       1.348   1.067  -0.655  1.00  0.00     0.278 HD
ATOM      8  HN1 UNL d   1       0.852   0.197  -1.837  1.00  0.00     0.278 HD
BRANCH   6   9
ATOM      9  C   UNL d   1       2.845  -0.159  -1.397  0.00  0.00     0.216 C 
ATOM     10  C   UNL d   1       2.999  -1.487  -2.131  0.00  0.00     0.045 C 
BRANCH   9  11
ATOM     11  C   UNL d   1       3.813   0.027  -0.252  0.00  0.00    -0.017 A 
ATOM     12  C   UNL d   1       4.073  -1.037   0.627  0.00  0.00     0.010 A 
ATOM     13  C   UNL d   1       4.940  -0.874   1.710  0.00  0.00     0.002 A 
ATOM     14  C   UNL d   1       5.555   0.358   1.936  0.00  0.00     0.012 A 
ATOM     15  C   UNL d   1       5.304   1.433   1.081  0.00  0.00    -0.025 A 
ATOM     16  C   UNL d   1       5.920   2.665   1.318  0.00  0.00     0.012 A 
ATOM     17  C   UNL d   1       4.427   1.276  -0.021  0.00  0.00    -0.018 A 
ATOM     18  C   UNL d   1       5.672   3.747   0.469  0.00  0.00     0.001 A 
ATOM     19  C   UNL d   1       4.808   3.602  -0.619  0.00  0.00     0.001 A 
ATOM     20  C   UNL d   1       4.188   2.373  -0.863  0.00  0.00     0.013 A 
ENDBRANCH   9  11
ENDBRANCH   6   9
ENDBRANCH   1   6
BRANCH   4  21
ATOM     21  C   UNL d   1      -2.794  -0.986   0.060  0.00  0.00     0.030 A 
ATOM     22  C   UNL d   1      -3.722  -0.371   0.916  0.00  0.00     0.030 A 
ATOM     23  C   UNL d   1      -5.094  -0.536   0.710  0.00  0.00     0.010 A 
ATOM     24  C   UNL d   1      -5.553  -1.321  -0.353  0.00  0.00    -0.048 A 
ATOM     25  C   UNL d   1      -4.636  -1.932  -1.214  0.00  0.00     0.010 A 
ATOM     26  C   UNL d   1      -3.264  -1.767  -1.007  0.00  0.00     0.030 A 
BRANCH  24  27
ATOM     27  C   UNL d   1      -7.017  -1.482  -0.584  0.00  0.00     0.151 C 
BRANCH  27  28
ATOM     28  C   UNL d   1      -7.527  -0.406  -1.480  0.00  0.00     0.176 C 
ATOM     29  O   UNL d   1      -7.450  -0.554  -2.859  0.00  0.00    -0.648 OA
ATOM     30  O   UNL d   1      -7.998   0.652  -0.988  0.00  0.00    -0.648 OA
ENDBRANCH  27  28
ENDBRANCH  24  27
ENDBRANCH   4  21
TORSDOF 6
