REMARK  5 active torsions:
REMARK  status: ('A' for Active; 'I' for Inactive)
REMARK    1  A    between atoms: O_2  and  C_3 
REMARK    2  A    between atoms: C_5  and  C_13 
REMARK    3  A    between atoms: C_7  and  O_11 
REMARK    4  A    between atoms: C_8  and  O_9 
REMARK       I    between atoms: C_13  and  N_15 
REMARK    5  A    between atoms: C_17  and  N_15 
ROOT
ATOM      1  C   UNL d   1      -2.752  -0.234  -1.242  0.00  0.00     0.105 A 
ATOM      2  C   UNL d   1      -1.500  -0.866  -1.175  0.00  0.00     0.057 A 
ATOM      3  C   UNL d   1      -0.496  -0.395  -0.326  0.00  0.00     0.037 A 
ATOM      4  C   UNL d   1      -0.748   0.725   0.469  0.00  0.00     0.057 A 
ATOM      5  C   UNL d   1      -1.989   1.376   0.422  0.00  0.00     0.105 A 
ATOM      6  C   UNL d   1      -3.000   0.903  -0.432  0.00  0.00     0.135 A 
ENDROOT
BRANCH   3   7
ATOM      7  C   UNL d   1       0.812  -1.070  -0.268  0.00  0.00     0.252 C 
ATOM      8  O   UNL d   1       1.032  -2.082  -0.988  0.00  0.00    -0.268 OA
ATOM      9  N   UNL d   1       1.833  -0.580   0.608  0.00  0.00    -0.351 N 
ATOM     10  HN  UNL d   1       1.624   0.224   1.200  1.00  0.00     0.163 HD
BRANCH   9  11
ATOM     11  C   UNL d   1       3.156  -1.181   0.690  0.00  0.00     0.110 C 
ATOM     12  C   UNL d   1       3.851  -0.714   1.976  0.00  0.00     0.257 C 
ATOM     13  N   UNL d   1       4.818   0.346   1.695  0.00  0.00    -0.073 N 
ATOM     14  C   UNL d   1       5.931  -0.218   0.925  0.00  0.00     0.232 C 
ATOM     15  HN2 UNL d   1       5.132   0.821   2.541  1.00  0.00     0.277 HD
ATOM     16  HN1 UNL d   1       4.391   1.149   1.231  1.00  0.00     0.277 HD
ATOM     17  C   UNL d   1       5.461  -1.002  -0.313  0.00  0.00     0.029 C 
ATOM     18  C   UNL d   1       3.966  -0.829  -0.564  0.00  0.00     0.028 C 
ENDBRANCH   9  11
ENDBRANCH   3   7
BRANCH   1  19
ATOM     19  O   UNL d   1      -3.740  -0.728  -2.102  0.00  0.00    -0.353 OA
ATOM     20  C   UNL d   1      -3.545  -1.863  -2.935  0.00  0.00     0.210 C 
ENDBRANCH   1  19
BRANCH   5  21
ATOM     21  O   UNL d   1      -2.241   2.499   1.218  0.00  0.00    -0.353 OA
ATOM     22  C   UNL d   1      -1.277   3.045   2.109  0.00  0.00     0.210 C 
ENDBRANCH   5  21
BRANCH   6  23
ATOM     23  O   UNL d   1      -4.221   1.600  -0.432  0.00  0.00    -0.351 OA
ATOM     24  C   UNL d   1      -5.350   1.267  -1.227  0.00  0.00     0.210 C 
ENDBRANCH   6  23
TORSDOF 5
