REMARK  4 active torsions:
REMARK  status: ('A' for Active; 'I' for Inactive)
REMARK    1  A    between atoms: C1*_11  and  N1_4 
REMARK    2  A    between atoms: C3*_13  and  O3*_19 
REMARK    3  A    between atoms: C4*_14  and  C5*_16 
REMARK    4  A    between atoms: C5*_16  and  O5*_17 
ROOT
ATOM      1  C5M  T1 d   1      -4.045  -1.078   1.569  0.00  0.00     0.056 C 
ATOM      2  C5   T1 d   1      -2.954  -0.354   0.856  0.00  0.00     0.022 A 
ATOM      3  C6   T1 d   1      -1.669  -0.890   0.830  0.00  0.00     0.110 A 
ATOM      4  N1   T1 d   1      -0.661  -0.244   0.185  0.00  0.00    -0.282 N 
ATOM      5  C2   T1 d   1      -0.905   0.947  -0.450  0.00  0.00     0.331 A 
ATOM      6  O2   T1 d   1       0.018   1.556  -1.054  0.00  0.00    -0.246 OA
ATOM      7  N3   T1 d   1      -2.154   1.483  -0.433  0.00  0.00    -0.275 N 
ATOM      8  H3   T1 d   1      -2.323   2.369  -0.908  1.00  0.00     0.173 HD
ATOM      9  C4   T1 d   1      -3.180   0.862   0.203  0.00  0.00     0.256 A 
ATOM     10  O4   T1 d   1      -4.324   1.388   0.199  0.00  0.00    -0.267 OA
ENDROOT
BRANCH   4  11
ATOM     11  C1*  T1 d   1       0.659  -0.875   0.202  0.00  0.00     0.235 C 
ATOM     12  O4*  T1 d   1       1.629   0.009   0.699  0.00  0.00    -0.356 OA
ATOM     13  C4*  T1 d   1       2.834  -0.390   0.099  0.00  0.00     0.176 C 
ATOM     14  C3*  T1 d   1       2.527  -1.004  -1.249  0.00  0.00     0.153 C 
ATOM     15  C2*  T1 d   1       1.067  -1.332  -1.183  0.00  0.00     0.088 C 
BRANCH  13  16
ATOM     16  C5*  T1 d   1       3.748   0.808  -0.080  0.00  0.00     0.198 C 
BRANCH  16  17
ATOM     17  O5*  T1 d   1       4.143   1.292   1.167  0.00  0.00    -0.398 OA
ATOM     18  H5*  T1 d   1       4.716   2.042   1.054  1.00  0.00     0.209 HD
ENDBRANCH  16  17
ENDBRANCH  13  16
BRANCH  14  19
ATOM     19  O3*  T1 d   1       3.266  -2.177  -1.408  0.00  0.00    -0.393 OA
ATOM     20  H3*  T1 d   1       4.192  -1.969  -1.450  1.00  0.00     0.210 HD
ENDBRANCH  14  19
ENDBRANCH   4  11
TORSDOF 4
