REMARK  Name = fda_7825
REMARK  1 active torsions:
REMARK  status: ('A' for Active; 'I' for Inactive)
REMARK    1  A    between atoms: C_20  and  C_21
REMARK                            x       y       z     vdW  Elec       q    Type
REMARK                         _______ _______ _______ _____ _____    ______ ____
ROOT
ATOM      1  C   UNL A   1      -1.401   0.018  -1.679  0.00  0.00    +0.004 C 
ATOM      2  C   UNL A   1      -1.446  -0.113  -0.153  0.00  0.00    +0.019 C 
ATOM      3  C   UNL A   1      -0.604  -1.258   0.361  0.00  0.00    +0.008 C 
ATOM      4  C   UNL A   1       0.837  -1.203  -0.123  0.00  0.00    +0.005 C 
ATOM      5  C   UNL A   1       1.447   0.116   0.405  0.00  0.00    +0.004 C 
ATOM      6  C   UNL A   1       2.898   0.286  -0.103  0.00  0.00    +0.015 C 
ATOM      7  C   UNL A   1       2.877   0.611  -1.594  0.00  0.00    +0.004 C 
ATOM      8  C   UNL A   1       3.703  -1.002   0.082  0.00  0.00    -0.047 C 
ATOM      9  C   UNL A   1       3.112  -2.196   0.259  0.00  0.00    -0.035 C 
ATOM     10  C   UNL A   1       1.631  -2.366   0.458  0.00  0.00    +0.025 C 
ATOM     11  C   UNL A   1       5.207  -0.987  -0.010  0.00  0.00    +0.054 C 
ATOM     12  C   UNL A   1       5.799   0.419   0.086  0.00  0.00    +0.156 C 
ATOM     13  O   UNL A   1       5.849   1.020  -1.173  0.00  0.00    -0.223 OA
ATOM     14  C   UNL A   1       5.008   1.279   1.067  0.00  0.00    +0.034 C 
ATOM     15  C   UNL A   1       3.547   1.475   0.636  0.00  0.00    +0.006 C 
ATOM     16  C   UNL A   1       0.561   1.362   0.129  0.00  0.00    +0.001 C 
ATOM     17  C   UNL A   1      -0.915   1.150   0.521  0.00  0.00    +0.004 C 
ATOM     18  C   UNL A   1      -1.462  -2.496   0.205  0.00  0.00    +0.026 C 
ATOM     19  C   UNL A   1      -2.820  -1.908   0.416  0.00  0.00    -0.030 C 
ATOM     20  C   UNL A   1      -2.808  -0.583   0.250  0.00  0.00    -0.025 C 
ENDROOT
BRANCH  20  21
ATOM     21  C   UNL A   1      -4.022   0.261   0.335  0.00  0.00    +0.015 A 
ATOM     22  C   UNL A   1      -5.246  -0.281   0.754  0.00  0.00    +0.003 A 
ATOM     23  C   UNL A   1      -6.384   0.522   0.826  0.00  0.00    +0.021 A 
ATOM     24  C   UNL A   1      -6.289   1.870   0.475  0.00  0.00    +0.099 A 
ATOM     25  N   UNL A   1      -5.099   2.386   0.068  0.00  0.00    -0.242 NA
ATOM     26  C   UNL A   1      -3.978   1.618  -0.008  0.00  0.00    +0.099 A 
ENDBRANCH  20  21
TORSDOF 1
