REMARK  2 active torsions:
REMARK  status: ('A' for Active; 'I' for Inactive)
REMARK    1  A    between atoms: C_4  and  O_5 
REMARK    2  A    between atoms: C_8  and  O_9 
ROOT
ATOM      1  C   UNL d   1       2.829  -0.472  -0.211  0.00  0.00     0.048 C 
ATOM      2  C   UNL d   1       1.366  -0.228  -0.118  0.00  0.00    -0.057 A 
ATOM      3  C   UNL d   1       0.479  -1.308  -0.058  0.00  0.00     0.043 A 
ATOM      4  C   UNL d   1      -0.898  -1.078   0.029  0.00  0.00     0.068 A 
ATOM      5  C   UNL d   1      -1.387   0.232   0.056  0.00  0.00     0.073 A 
ATOM      6  C   UNL d   1      -0.500   1.311  -0.004  0.00  0.00     0.068 A 
ATOM      7  C   UNL d   1       0.876   1.081  -0.091  0.00  0.00     0.043 A 
ENDROOT
BRANCH   4   8
ATOM      8  O   UNL d   1      -1.778  -2.149   0.088  0.00  0.00    -0.361 OA
ATOM      9  HO  UNL d   1      -2.713  -1.993   0.148  1.00  0.00     0.217 HD
ENDBRANCH   4   8
BRANCH   6  10
ATOM     10  O   UNL d   1      -0.987   2.611   0.024  0.00  0.00    -0.361 OA
ATOM     11  HO  UNL d   1      -0.384   3.344  -0.017  1.00  0.00     0.217 HD
ENDBRANCH   6  10
TORSDOF 2
