REMARK  14 active torsions:
REMARK  status: ('A' for Active; 'I' for Inactive)
REMARK    1  A    between atoms: C_2  and  O_3 
REMARK    2  A    between atoms: C_2  and  O_34 
REMARK    3  A    between atoms: O_3  and  C_4 
REMARK    4  A    between atoms: C_4  and  C_6 
REMARK    5  A    between atoms: C_7  and  C_29 
REMARK    6  A    between atoms: C_14  and  N_15 
REMARK       I    between atoms: N_15  and  C_17 
REMARK    7  A    between atoms: C_17  and  C_19 
REMARK    8  A    between atoms: C_19  and  C_24 
REMARK    9  A    between atoms: N_20  and  O_22 
REMARK   10  A    between atoms: C_29  and  O_30 
REMARK   11  A    between atoms: O_30  and  C_31 
REMARK   12  A    between atoms: O_34  and  C_35 
REMARK   13  A    between atoms: C_35  and  C_37 
REMARK   14  A    between atoms: C_37  and  O_40 
ROOT
ATOM      1  C   UNL d   1      -0.616   0.371  -0.394  0.00  0.00     0.119 C 
ATOM      2  C   UNL d   1      -0.358   1.643  -0.011  0.00  0.00    -0.013 C 
ATOM      3  C   UNL d   1       0.847   2.383  -0.547  0.00  0.00     0.115 C 
ATOM      4  S   UNL d   1       2.357   1.346  -0.634  0.00  0.00    -0.136 SA
ATOM      5  C   UNL d   1       1.563   0.208  -1.828  0.00  0.00     0.187 A 
ATOM      6  N   UNL d   1       0.354  -0.280  -1.217  0.00  0.00    -0.294 N 
ATOM      7  C   UNL d   1       0.832  -1.661  -1.445  0.00  0.00     0.251 A 
ATOM      8  O   UNL d   1       0.375  -2.812  -1.222  0.00  0.00    -0.271 OA
ATOM      9  C   UNL d   1       2.119  -1.121  -1.989  0.00  0.00     0.211 A 
ENDROOT
BRANCH   9  10
ATOM     10  N   UNL d   1       3.199  -1.412  -1.053  0.00  0.00    -0.339 N 
ATOM     11  C   UNL d   1       4.574  -1.171  -1.366  0.00  0.00     0.273 C 
ATOM     12  O   UNL d   1       4.892  -0.767  -2.518  0.00  0.00    -0.266 OA
ATOM     13  HN  UNL d   1       2.965  -1.804  -0.141  1.00  0.00     0.163 HD
BRANCH  11  14
ATOM     14  C   UNL d   1       5.625  -1.403  -0.354  0.00  0.00     0.155 C 
ATOM     15  N   UNL d   1       6.869  -1.388  -0.747  0.00  0.00    -0.259 N 
ATOM     16  HN  UNL d   1       7.042  -1.297  -1.748  1.00  0.00     0.194 HD
BRANCH  15  17
ATOM     17  O   UNL d   1       7.971  -1.485   0.082  0.00  0.00    -0.285 OA
ATOM     18  C   UNL d   1       8.123  -0.660   1.229  0.00  0.00     0.237 C 
ENDBRANCH  15  17
BRANCH  14  19
ATOM     19  C   UNL d   1       5.260  -1.718   1.048  0.00  0.00     0.109 A 
ATOM     20  O   UNL d   1       5.957  -2.506   1.827  0.00  0.00    -0.320 OA
ATOM     21  C   UNL d   1       5.367  -2.589   2.995  0.00  0.00     0.142 A 
ATOM     22  C   UNL d   1       4.221  -1.814   2.978  0.00  0.00     0.027 A 
ATOM     23  C   UNL d   1       4.147  -1.249   1.717  0.00  0.00     0.041 A 
ENDBRANCH  14  19
ENDBRANCH  11  14
ENDBRANCH   9  10
BRANCH   1  24
ATOM     24  C   UNL d   1      -1.796  -0.399   0.061  0.00  0.00     0.313 C 
ATOM     25  O   UNL d   1      -2.183  -1.388  -0.618  0.00  0.00    -0.258 OA
BRANCH  24  26
ATOM     26  O   UNL d   1      -2.469  -0.051   1.241  0.00  0.00    -0.284 OA
BRANCH  26  27
ATOM     27  C   UNL d   1      -3.652  -0.704   1.704  0.00  0.00     0.275 C 
ATOM     28  C   UNL d   1      -3.359  -2.142   2.093  0.00  0.00     0.072 C 
BRANCH  27  29
ATOM     29  O   UNL d   1      -4.666  -0.662   0.707  0.00  0.00    -0.287 OA
BRANCH  29  30
ATOM     30  C   UNL d   1      -5.317   0.524   0.356  0.00  0.00     0.295 C 
ATOM     31  O   UNL d   1      -5.078   1.591   0.988  0.00  0.00    -0.262 OA
BRANCH  30  32
ATOM     32  C   UNL d   1      -6.255   0.551  -0.828  0.00  0.00     0.140 C 
ATOM     33  C   UNL d   1      -6.828  -0.838  -1.115  0.00  0.00     0.057 C 
ATOM     34  C   UNL d   1      -5.435   0.946  -2.041  0.00  0.00     0.057 C 
BRANCH  32  35
ATOM     35  O   UNL d   1      -7.284   1.514  -0.673  0.00  0.00    -0.376 OA
ATOM     36  C   UNL d   1      -8.107   1.173   0.416  0.00  0.00     0.203 C 
ENDBRANCH  32  35
ENDBRANCH  30  32
ENDBRANCH  29  30
ENDBRANCH  27  29
ENDBRANCH  26  27
ENDBRANCH  24  26
ENDBRANCH   1  24
BRANCH   2  37
ATOM     37  C   UNL d   1      -1.292   2.432   0.854  0.00  0.00     0.217 C 
BRANCH  37  38
ATOM     38  O   UNL d   1      -2.447   2.820   0.119  0.00  0.00    -0.302 OA
BRANCH  38  39
ATOM     39  C   UNL d   1      -2.451   3.900  -0.766  0.00  0.00     0.372 C 
ATOM     40  O   UNL d   1      -1.427   4.619  -0.915  0.00  0.00    -0.242 OA
ATOM     41  N   UNL d   1      -3.631   4.197  -1.503  0.00  0.00    -0.032 NA
ENDBRANCH  38  39
ENDBRANCH  37  38
ENDBRANCH   2  37
TORSDOF 14
