REMARK  4 active torsions:
REMARK  status: ('A' for Active; 'I' for Inactive)
REMARK    1  A    between atoms: C_5  and  O_7 
REMARK    2  A    between atoms: O_7  and  C_8 
REMARK    3  A    between atoms: C_8  and  C_9 
REMARK    4  A    between atoms: C_8  and  C_15 
ROOT
ATOM      1  C   UNL d   1      -0.655   0.501  -0.270  0.00  0.00     0.188 C 
ENDROOT
BRANCH   1   2
ATOM      2  O   UNL d   1       0.400  -0.229   0.291  0.00  0.00    -0.371 OA
BRANCH   2   3
ATOM      3  C   UNL d   1       1.480  -0.040  -0.577  0.00  0.00     0.127 C 
ATOM      4  C   UNL d   1       1.907  -1.390  -1.190  0.00  0.00     0.067 C 
ATOM      5  C   UNL d   1       2.972  -2.128  -0.341  0.00  0.00     0.225 C 
ATOM      6  N   UNL d   1       4.131  -1.270  -0.101  0.00  0.00     0.093 N 
ATOM      7  C   UNL d   1       2.414  -2.376   1.055  0.00  0.00     0.038 C 
ATOM      8  C   UNL d   1       3.610  -0.293   0.853  0.00  0.00     0.225 C 
ATOM      9  C   UNL d   1       4.670  -0.664  -1.320  0.00  0.00     0.310 C 
ATOM     10  C   UNL d   1       2.627   0.683   0.160  0.00  0.00     0.067 C 
ATOM     11  C   UNL d   1       2.841  -1.145   1.856  0.00  0.00     0.038 C 
ENDBRANCH   2   3
ENDBRANCH   1   2
BRANCH   1  12
ATOM     12  C   UNL d   1      -1.789  -0.404  -0.647  0.00  0.00    -0.025 A 
ATOM     13  C   UNL d   1      -2.274  -1.368   0.249  0.00  0.00     0.010 A 
ATOM     14  C   UNL d   1      -3.342  -2.192  -0.118  0.00  0.00     0.001 A 
ATOM     15  C   UNL d   1      -3.931  -2.053  -1.378  0.00  0.00     0.000 A 
ATOM     16  C   UNL d   1      -3.453  -1.089  -2.271  0.00  0.00     0.001 A 
ATOM     17  C   UNL d   1      -2.385  -0.265  -1.905  0.00  0.00     0.010 A 
ENDBRANCH   1  12
BRANCH   1  18
ATOM     18  C   UNL d   1      -1.102   1.591   0.656  0.00  0.00    -0.025 A 
ATOM     19  C   UNL d   1      -1.302   2.879   0.149  0.00  0.00     0.010 A 
ATOM     20  C   UNL d   1      -1.732   3.908   0.993  0.00  0.00     0.001 A 
ATOM     21  C   UNL d   1      -1.967   3.649   2.346  0.00  0.00     0.000 A 
ATOM     22  C   UNL d   1      -1.774   2.362   2.857  0.00  0.00     0.001 A 
ATOM     23  C   UNL d   1      -1.343   1.334   2.014  0.00  0.00     0.010 A 
ENDBRANCH   1  18
TORSDOF 4
