REMARK  1 active torsions:
REMARK  status: ('A' for Active; 'I' for Inactive)
REMARK       I    between atoms: N_1  and  C_3 
REMARK    1  A    between atoms: N_1  and  C_6 
ROOT
ATOM      1  C   UNL d   1      -0.139   0.059  -0.667  0.00  0.00     0.283 A 
ATOM      2  N   UNL d   1      -1.022  -1.065  -0.948  0.00  0.00    -0.313 N 
ATOM      3  HN  UNL d   1      -0.912  -1.751  -1.695  1.00  0.00     0.166 HD
ATOM      4  C   UNL d   1      -2.066  -1.026   0.015  0.00  0.00     0.324 A 
ATOM      5  O   UNL d   1      -2.996  -1.872   0.046  0.00  0.00    -0.247 OA
ATOM      6  N   UNL d   1      -1.975   0.045   0.938  0.00  0.00    -0.276 N 
ATOM      7  HN  UNL d   1      -2.598   0.279   1.711  1.00  0.00     0.173 HD
ATOM      8  C   UNL d   1      -0.795   0.709   0.511  0.00  0.00     0.268 A 
ATOM      9  O   UNL d   1      -0.367   1.753   1.070  0.00  0.00    -0.269 OA
ENDROOT
BRANCH   1  10
ATOM     10  N   UNL d   1       1.177  -0.443  -0.296  0.00  0.00    -0.316 N 
ATOM     11  C   UNL d   1       2.336   0.391  -0.251  0.00  0.00     0.330 C 
ATOM     12  N   UNL d   1       3.583  -0.158   0.154  0.00  0.00    -0.040 NA
ATOM     13  O   UNL d   1       2.264   1.607  -0.572  0.00  0.00    -0.251 OA
ATOM     14  HN  UNL d   1       1.276  -1.430  -0.059  1.00  0.00     0.166 HD
ENDBRANCH   1  10
TORSDOF 1
