REMARK  1 active torsions:
REMARK  status: ('A' for Active; 'I' for Inactive)
REMARK    1  A    between atoms: C_15  and  C_17 
ROOT
ATOM      1  C   UNL d   1       0.758  -2.767  -2.917  0.00  0.00     0.041 C 
ATOM      2  C   UNL d   1       1.431  -1.969  -1.818  0.00  0.00     0.149 C 
ATOM      3  C   UNL d   1       1.169  -2.619  -0.489  0.00  0.00     0.309 C 
ATOM      4  C   UNL d   1       0.390  -1.784   1.569  0.00  0.00     0.380 C 
ATOM      5  C   UNL d   1      -0.858  -1.382   2.270  0.00  0.00     0.250 C 
ATOM      6  O   UNL d   1      -1.047  -1.825   3.432  0.00  0.00    -0.271 OA
ATOM      7  N   UNL d   1      -1.837  -0.493   1.710  0.00  0.00    -0.325 N 
ATOM      8  HN  UNL d   1      -2.626  -0.324   2.333  1.00  0.00     0.169 HD
ATOM      9  C   UNL d   1      -1.945   0.212   0.457  0.00  0.00     0.046 A 
ATOM     10  C   UNL d   1      -3.129   0.938   0.277  0.00  0.00     0.032 A 
ATOM     11  C   UNL d   1      -3.352   1.694  -0.873  0.00  0.00     0.026 A 
ATOM     12  C   UNL d   1      -2.381   1.742  -1.867  0.00  0.00     0.034 A 
ATOM     13  C   UNL d   1      -1.194   1.031  -1.711  0.00  0.00     0.038 A 
ATOM     14  C   UNL d   1      -0.953   0.243  -0.570  0.00  0.00     0.041 A 
ATOM     15  C   UNL d   1       0.392  -0.456  -0.473  0.00  0.00     0.321 C 
ATOM     16  O   UNL d   1       0.890  -0.671  -1.783  0.00  0.00    -0.338 OA
ATOM     17 CL   UNL d   1      -2.647   2.700  -3.307  0.00  0.00    -0.084 Cl
ATOM     18  N   UNL d   1       0.180  -1.779   0.134  0.00  0.00     0.144 N 
ENDROOT
BRANCH  15  19
ATOM     19  C   UNL d   1       1.408   0.428   0.277  0.00  0.00     0.012 A 
ATOM     20  C   UNL d   1       0.993   1.405   1.202  0.00  0.00     0.012 A 
ATOM     21  C   UNL d   1       1.928   2.170   1.902  0.00  0.00     0.001 A 
ATOM     22  C   UNL d   1       3.294   1.964   1.696  0.00  0.00     0.000 A 
ATOM     23  C   UNL d   1       3.723   0.990   0.792  0.00  0.00     0.001 A 
ATOM     24  C   UNL d   1       2.787   0.225   0.091  0.00  0.00     0.012 A 
ENDBRANCH  15  19
TORSDOF 1
