REMARK  8 active torsions:
REMARK  status: ('A' for Active; 'I' for Inactive)
REMARK    1  A    between atoms: O_2  and  C_3 
REMARK    2  A    between atoms: C_5  and  C_6 
REMARK    3  A    between atoms: C_6  and  O_7 
REMARK    4  A    between atoms: C_6  and  C_9 
REMARK    5  A    between atoms: C_9  and  N_10 
REMARK       I    between atoms: N_10  and  C_12 
REMARK    6  A    between atoms: C_12  and  C_14 
REMARK    7  A    between atoms: C_14  and  N_15 
REMARK    8  A    between atoms: C_19  and  O_20 
ROOT
ATOM      1  C   UNL d   1       0.522  -1.463   0.752  0.00  0.00     0.171 C 
ENDROOT
BRANCH   1   2
ATOM      2  C   UNL d   1      -0.628  -0.667   0.209  0.00  0.00     0.008 A 
ATOM      3  C   UNL d   1      -0.856   0.606   0.743  0.00  0.00     0.049 A 
ATOM      4  C   UNL d   1      -1.903   1.408   0.265  0.00  0.00     0.069 A 
ATOM      5  C   UNL d   1      -2.725   0.925  -0.755  0.00  0.00     0.039 A 
ATOM      6  C   UNL d   1      -2.505  -0.342  -1.298  0.00  0.00     0.040 A 
ATOM      7  C   UNL d   1      -1.457  -1.149  -0.826  0.00  0.00     0.077 A 
BRANCH   4   8
ATOM      8  O   UNL d   1      -2.145   2.683   0.785  0.00  0.00    -0.356 OA
ATOM      9  C   UNL d   1      -1.353   3.254   1.817  0.00  0.00     0.210 C 
ENDBRANCH   4   8
BRANCH   7  10
ATOM     10  O   UNL d   1      -1.224  -2.418  -1.369  0.00  0.00    -0.355 OA
ATOM     11  C   UNL d   1      -2.017  -2.966  -2.414  0.00  0.00     0.210 C 
ENDBRANCH   7  10
ENDBRANCH   1   2
BRANCH   1  12
ATOM     12  O   UNL d   1       0.085  -2.712   1.198  0.00  0.00    -0.389 OA
ATOM     13  HO  UNL d   1       0.813  -3.216   1.542  1.00  0.00     0.210 HD
ENDBRANCH   1  12
BRANCH   1  14
ATOM     14  C   UNL d   1       1.630  -1.636  -0.281  0.00  0.00     0.159 C 
BRANCH  14  15
ATOM     15  N   UNL d   1       2.220  -0.349  -0.624  0.00  0.00    -0.357 N 
ATOM     16  C   UNL d   1       3.030   0.399   0.286  0.00  0.00     0.243 C 
ATOM     17  O   UNL d   1       3.304  -0.059   1.428  0.00  0.00    -0.272 OA
ATOM     18  HN  UNL d   1       2.049   0.035  -1.553  1.00  0.00     0.162 HD
BRANCH  16  19
ATOM     19  C   UNL d   1       3.520   1.747  -0.104  0.00  0.00     0.332 C 
BRANCH  19  20
ATOM     20  N   UNL d   1       2.501   2.739   0.187  0.00  0.00    -0.071 N 
ATOM     21  HN3 UNL d   1       1.608   2.513  -0.251  1.00  0.00     0.274 HD
ATOM     22  HN2 UNL d   1       2.199   2.706   1.161  1.00  0.00     0.274 HD
ATOM     23  HN1 UNL d   1       2.838   3.664  -0.080  1.00  0.00     0.274 HD
ENDBRANCH  19  20
ENDBRANCH  16  19
ENDBRANCH  14  15
ENDBRANCH   1  14
TORSDOF 8
