REMARK  3 active torsions:
REMARK  status: ('A' for Active; 'I' for Inactive)
REMARK    1  A    between atoms: C_1  and  C_2 
REMARK    2  A    between atoms: C_5  and  C_6 
REMARK    3  A    between atoms: C_6  and  C_7 
ROOT
ATOM      1  C   UNL d   1       0.235   0.548   0.126  0.00  0.00    -0.036 A 
ATOM      2  C   UNL d   1      -0.067  -0.822   0.086  0.00  0.00     0.012 A 
ATOM      3  C   UNL d   1      -1.368  -1.270   0.330  0.00  0.00     0.009 A 
ATOM      4  C   UNL d   1      -2.385  -0.354   0.616  0.00  0.00    -0.044 A 
ATOM      5  C   UNL d   1      -2.089   1.017   0.650  0.00  0.00     0.009 A 
ATOM      6  C   UNL d   1      -0.787   1.461   0.407  0.00  0.00     0.012 A 
ENDROOT
BRANCH   1   7
ATOM      7  C   UNL d   1       1.588   1.086  -0.130  0.00  0.00     0.022 C 
ATOM      8  C   UNL d   1       2.725   0.412  -0.368  0.00  0.00    -0.011 C 
ATOM      9  C   UNL d   1       3.981   1.177  -0.562  0.00  0.00     0.155 C 
ATOM     10  C   UNL d   1       2.788  -1.093  -0.333  0.00  0.00     0.042 C 
ATOM     11  O   UNL d   1       4.012   2.420  -0.358  0.00  0.00    -0.293 OA
ATOM     12  C   UNL d   1       5.215   0.501  -1.084  0.00  0.00     0.083 C 
ATOM     13  C   UNL d   1       5.244  -0.983  -0.734  0.00  0.00     0.008 C 
ATOM     14  C   UNL d   1       3.941  -1.641  -1.167  0.00  0.00     0.005 C 
ENDBRANCH   1   7
BRANCH   4  15
ATOM     15  C   UNL d   1      -3.773  -0.860   0.864  0.00  0.00     0.115 C 
ATOM     16  C   UNL d   1      -4.294  -0.432   2.227  0.00  0.00     0.026 C 
BRANCH  15  17
ATOM     17  C   UNL d   1      -4.715  -0.467  -0.230  0.00  0.00     0.181 C 
ATOM     18  O   UNL d   1      -5.165  -1.429  -1.124  0.00  0.00    -0.647 OA
ATOM     19  O   UNL d   1      -5.086   0.730  -0.361  0.00  0.00    -0.647 OA
ENDBRANCH  15  17
ENDBRANCH   4  15
TORSDOF 3
