REMARK  Name = fda_4067
REMARK  0 active torsions:
REMARK  status: ('A' for Active; 'I' for Inactive)
REMARK                            x       y       z     vdW  Elec       q    Type
REMARK                         _______ _______ _______ _____ _____    ______ ____
ROOT
ATOM      1  C   UNL A   1       4.268  -0.091  -0.236  0.00  0.00    +0.090 C 
ATOM      2  C   UNL A   1       2.414  -0.360  -1.688  0.00  0.00    +0.073 C 
ATOM      3  C   UNL A   1       1.031  -0.999  -1.912  0.00  0.00    +0.028 C 
ATOM      4  C   UNL A   1       0.102  -0.736  -0.714  0.00  0.00    +0.093 C 
ATOM      5  C   UNL A   1      -0.136   0.726  -0.598  0.00  0.00    +0.017 A 
ATOM      6  C   UNL A   1       0.674   1.631   0.078  0.00  0.00    -0.021 A 
ATOM      7  C   UNL A   1       0.244   2.967   0.158  0.00  0.00    -0.001 A 
ATOM      8  C   UNL A   1      -1.000   3.341  -0.400  0.00  0.00    +0.045 A 
ATOM      9  C   UNL A   1      -1.836   2.370  -0.985  0.00  0.00    +0.229 A 
ATOM     10  C   UNL A   1      -1.381   1.052  -1.027  0.00  0.00    +0.173 A 
ATOM     11  O   UNL A   1      -2.088  -0.085  -1.368  0.00  0.00    -0.468 OA
ATOM     12  C   UNL A   1      -1.339  -1.255  -1.003  0.00  0.00    +0.228 C 
ATOM     13  C   UNL A   1      -2.008  -1.910   0.189  0.00  0.00    +0.191 C 
ATOM     14  O   UNL A   1      -3.073  -2.477   0.011  0.00  0.00    -0.292 OA
ATOM     15  C   UNL A   1      -1.429  -1.912   1.587  0.00  0.00    +0.071 C 
ATOM     16  C   UNL A   1      -0.169  -1.062   1.758  0.00  0.00    +0.040 C 
ATOM     17  C   UNL A   1       0.779  -1.242   0.575  0.00  0.00    +0.148 C 
ATOM     18  C   UNL A   1       2.092  -0.424   0.729  0.00  0.00    +0.090 C 
ATOM     19  C   UNL A   1       1.856   1.120   0.864  0.00  0.00    +0.045 C 
ATOM     20  O   UNL A   1       1.099  -2.601   0.457  0.00  0.00    -0.224 OA
ATOM     21  O   UNL A   1      -3.089   2.712  -1.474  0.00  0.00    -0.283 OA
ATOM     22  N   UNL A   1       2.988  -0.765  -0.398  0.00  0.00    -0.270 NA
ENDROOT
TORSDOF 0
