REMARK  8 active torsions:
REMARK  status: ('A' for Active; 'I' for Inactive)
REMARK    1  A    between atoms: C_2  and  O_4 
REMARK    2  A    between atoms: O_4  and  C_5 
REMARK    3  A    between atoms: C_6  and  C_5 
REMARK    4  A    between atoms: C_7  and  O_25 
REMARK    5  A    between atoms: C_8  and  O_21 
REMARK    6  A    between atoms: C_9  and  N_11 
REMARK    7  A    between atoms: O_21  and  C_22 
REMARK    8  A    between atoms: O_25  and  C_26 
ROOT
ATOM      1  C   UNL d   1       1.302   0.408   1.588  0.00  0.00     0.180 C 
ATOM      2  C   UNL d   1       1.587  -0.706   0.596  0.00  0.00     0.197 C 
ATOM      3  C   UNL d   1       0.238  -1.109   0.065  0.00  0.00     0.214 C 
ATOM      4  C   UNL d   1      -0.713  -0.271   0.910  0.00  0.00     0.281 C 
ATOM      5  O   UNL d   1      -0.022   0.844   1.412  0.00  0.00    -0.352 OA
ENDROOT
BRANCH   4   6
ATOM      6  N   UNL d   1      -1.911   0.139   0.173  0.00  0.00    -0.210 N 
ATOM      7  N   UNL d   1      -1.870   1.235  -0.592  0.00  0.00    -0.298 N 
ATOM      8  C   UNL d   1      -2.948   1.640  -1.310  0.00  0.00     0.182 A 
ATOM      9  HN  UNL d   1      -1.009   1.780  -0.637  1.00  0.00     0.186 HD
ATOM     10  C   UNL d   1      -4.114   0.886  -1.243  0.00  0.00     0.266 A 
ATOM     11  N   UNL d   1      -4.146  -0.227  -0.470  0.00  0.00    -0.273 N 
ATOM     12  O   UNL d   1      -5.132   1.234  -1.896  0.00  0.00    -0.267 OA
ATOM     13  C   UNL d   1      -3.053  -0.609   0.238  0.00  0.00     0.346 A 
ATOM     14  HN  UNL d   1      -5.000  -0.783  -0.420  1.00  0.00     0.173 HD
ATOM     15  O   UNL d   1      -3.104  -1.649   0.947  0.00  0.00    -0.245 OA
ENDBRANCH   4   6
BRANCH   3  16
ATOM     16  O   UNL d   1       0.153  -0.754  -1.312  0.00  0.00    -0.309 OA
BRANCH  16  17
ATOM     17  C   UNL d   1       0.734  -1.525  -2.320  0.00  0.00     0.255 C 
ATOM     18  O   UNL d   1       1.347  -2.592  -2.048  0.00  0.00    -0.266 OA
ATOM     19  C   UNL d   1       0.624  -1.083  -3.734  0.00  0.00     0.126 C 
ENDBRANCH  16  17
ENDBRANCH   3  16
BRANCH   2  20
ATOM     20  O   UNL d   1       2.279  -1.801   1.202  0.00  0.00    -0.311 OA
BRANCH  20  21
ATOM     21  C   UNL d   1       1.808  -2.543   2.294  0.00  0.00     0.255 C 
ATOM     22  O   UNL d   1       0.705  -2.275   2.840  0.00  0.00    -0.266 OA
ATOM     23  C   UNL d   1       2.628  -3.665   2.818  0.00  0.00     0.126 C 
ENDBRANCH  20  21
ENDBRANCH   2  20
BRANCH   1  24
ATOM     24  C   UNL d   1       2.268   1.566   1.385  0.00  0.00     0.213 C 
BRANCH  24  25
ATOM     25  O   UNL d   1       2.092   2.142   0.097  0.00  0.00    -0.319 OA
BRANCH  25  26
ATOM     26  C   UNL d   1       2.864   3.217  -0.340  0.00  0.00     0.254 C 
ATOM     27  C   UNL d   1       2.634   3.777  -1.698  0.00  0.00     0.126 C 
ATOM     28  O   UNL d   1       3.752   3.720   0.398  0.00  0.00    -0.266 OA
ENDBRANCH  25  26
ENDBRANCH  24  25
ENDBRANCH   1  24
TORSDOF 8
