REMARK  10 active torsions:
REMARK  status: ('A' for Active; 'I' for Inactive)
REMARK    1  A    between atoms: C_2  and  C_3 
REMARK    2  A    between atoms: C_3  and  C_4 
REMARK    3  A    between atoms: C_4  and  O_6 
REMARK    4  A    between atoms: C_7  and  O_6 
REMARK    5  A    between atoms: C_7  and  C_31 
REMARK    6  A    between atoms: C_13  and  O_27 
REMARK    7  A    between atoms: C_31  and  C_33 
REMARK    8  A    between atoms: C_33  and  O_34 
REMARK    9  A    between atoms: O_34  and  C_35 
REMARK   10  A    between atoms: C_35  and  C_37 
ROOT
ATOM      1  C   UNL d   1      -1.543  -1.179  -0.274  0.00  0.00     0.144 C 
ATOM      2  C   UNL d   1      -1.351  -2.010   1.040  0.00  0.00     0.026 C 
ATOM      3  C   UNL d   1       0.127  -1.971   1.416  0.00  0.00     0.013 C 
ATOM      4  C   UNL d   1       0.623  -0.775   0.647  0.00  0.00     0.005 C 
ATOM      5  C   UNL d   1      -0.096  -0.736  -0.680  0.00  0.00     0.002 C 
ATOM      6  C   UNL d   1      -0.005   0.679  -1.291  0.00  0.00     0.048 C 
ATOM      7  C   UNL d   1       1.221   1.512  -0.834  0.00  0.00     0.160 C 
ATOM      8  C   UNL d   1       2.459   0.647  -0.469  0.00  0.00     0.147 C 
ATOM      9  C   UNL d   1       2.091  -0.346   0.661  0.00  0.00     0.035 C 
ATOM     10  C   UNL d   1       3.138  -1.462   0.823  0.00  0.00     0.013 C 
ATOM     11  C   UNL d   1       4.575  -0.941   0.607  0.00  0.00     0.036 C 
ATOM     12  C   UNL d   1       4.653   0.548   0.808  0.00  0.00    -0.061 C 
ATOM     13  C   UNL d   1       5.441   1.027   1.776  0.00  0.00     0.058 C 
ATOM     14  C   UNL d   1       5.301   2.425   2.201  0.00  0.00     0.172 C 
ATOM     15  O   UNL d   1       6.147   2.948   2.970  0.00  0.00    -0.289 OA
ATOM     16  C   UNL d   1       4.091   3.161   1.810  0.00  0.00     0.052 C 
ATOM     17  C   UNL d   1       3.309   2.678   0.839  0.00  0.00    -0.006 C 
ATOM     18  C   UNL d   1       3.707   1.464   0.016  0.00  0.00     0.036 C 
ATOM     19  C   UNL d   1       4.484   1.992  -1.187  0.00  0.00     0.028 C 
ATOM     20  F   UNL d   1       2.817  -0.077  -1.602  0.00  0.00    -0.238 F 
ATOM     21  C   UNL d   1       0.580  -1.722  -1.640  0.00  0.00     0.019 C 
ATOM     22  C   UNL d   1      -1.877  -3.439   1.058  0.00  0.00     0.013 C 
ENDROOT
BRANCH   1  23
ATOM     23  O   UNL d   1      -2.358  -0.024   0.014  0.00  0.00    -0.301 OA
BRANCH  23  24
ATOM     24  C   UNL d   1      -2.229   0.877   1.083  0.00  0.00     0.260 C 
ATOM     25  O   UNL d   1      -1.403   0.692   2.014  0.00  0.00    -0.265 OA
BRANCH  24  26
ATOM     26  C   UNL d   1      -3.081   2.095   1.103  0.00  0.00     0.111 C 
BRANCH  26  27
ATOM     27  C   UNL d   1      -2.454   3.169   0.237  0.00  0.00     0.005 C 
ATOM     28  C   UNL d   1      -3.326   4.406   0.255  0.00  0.00     0.005 C 
ENDBRANCH  26  27
ENDBRANCH  24  26
ENDBRANCH  23  24
ENDBRANCH   1  23
BRANCH   1  29
ATOM     29  C   UNL d   1      -2.258  -1.958  -1.386  0.00  0.00     0.187 C 
ATOM     30  O   UNL d   1      -1.849  -3.051  -1.750  0.00  0.00    -0.292 OA
BRANCH  29  31
ATOM     31  C   UNL d   1      -3.481  -1.401  -2.054  0.00  0.00     0.260 C 
BRANCH  31  32
ATOM     32  O   UNL d   1      -4.607  -2.238  -1.811  0.00  0.00    -0.314 OA
BRANCH  32  33
ATOM     33  C   UNL d   1      -5.286  -2.251  -0.590  0.00  0.00     0.258 C 
ATOM     34  O   UNL d   1      -4.960  -1.468   0.342  0.00  0.00    -0.265 OA
BRANCH  33  35
ATOM     35  C   UNL d   1      -6.435  -3.176  -0.401  0.00  0.00     0.106 C 
ATOM     36  C   UNL d   1      -7.700  -2.540  -0.940  0.00  0.00     0.015 C 
ENDBRANCH  33  35
ENDBRANCH  32  33
ENDBRANCH  31  32
ENDBRANCH  29  31
ENDBRANCH   1  29
BRANCH   7  37
ATOM     37  O   UNL d   1       1.536   2.444  -1.823  0.00  0.00    -0.392 OA
ATOM     38  HO  UNL d   1       2.287   2.954  -1.543  1.00  0.00     0.210 HD
ENDBRANCH   7  37
TORSDOF 10
