REMARK  2 active torsions:
REMARK  status: ('A' for Active; 'I' for Inactive)
REMARK    1  A    between atoms: O_1  and  C_3 
REMARK    2  A    between atoms: C_8  and  O_9 
ROOT
ATOM      1  C   UNL d   1       2.544   0.859  -0.206  0.00  0.00     0.080 A 
ATOM      2  C   UNL d   1       1.288   0.222  -0.058  0.00  0.00     0.055 A 
ATOM      3  C   UNL d   1       0.011   0.961  -0.212  0.00  0.00     0.199 A 
ATOM      4  O   UNL d   1       0.025   2.192  -0.484  0.00  0.00    -0.286 OA
ATOM      5  C   UNL d   1      -1.283   0.254  -0.048  0.00  0.00     0.055 A 
ATOM      6  C   UNL d   1      -2.524   0.922  -0.187  0.00  0.00     0.080 A 
ATOM      7  C   UNL d   1      -3.721   0.222  -0.024  0.00  0.00     0.037 A 
ATOM      8  C   UNL d   1      -3.708  -1.139   0.276  0.00  0.00     0.003 A 
ATOM      9  C   UNL d   1      -2.493  -1.807   0.415  0.00  0.00     0.008 A 
ATOM     10  C   UNL d   1      -1.283  -1.126   0.257  0.00  0.00    -0.037 A 
ATOM     11  C   UNL d   1      -0.022  -1.922   0.424  0.00  0.00     0.079 A 
ATOM     12  C   UNL d   1       1.257  -1.157   0.247  0.00  0.00    -0.037 A 
ATOM     13  C   UNL d   1       2.451  -1.869   0.396  0.00  0.00     0.008 A 
ATOM     14  C   UNL d   1       3.681  -1.231   0.247  0.00  0.00     0.003 A 
ATOM     15  C   UNL d   1       3.725   0.129  -0.053  0.00  0.00     0.037 A 
ENDROOT
BRANCH   1  16
ATOM     16  O   UNL d   1       2.640   2.213  -0.506  0.00  0.00    -0.360 OA
ATOM     17  HO  UNL d   1       3.483   2.640  -0.606  1.00  0.00     0.217 HD
ENDBRANCH   1  16
BRANCH   6  18
ATOM     18  O   UNL d   1      -2.588   2.278  -0.486  0.00  0.00    -0.360 OA
ATOM     19  HO  UNL d   1      -3.421   2.726  -0.579  1.00  0.00     0.217 HD
ENDBRANCH   6  18
TORSDOF 2
