REMARK  1 active torsions:
REMARK  status: ('A' for Active; 'I' for Inactive)
REMARK    1  A    between atoms: C_2  and  C_4 
ROOT
ATOM      1  C   UNL d   1      -2.346  -0.128   2.661  0.00  0.00     0.156 A 
ATOM      2  O   UNL d   1      -2.669  -1.492   2.737  0.00  0.00    -0.358 OA
ATOM      3  C   UNL d   1      -1.355  -1.165   3.117  0.00  0.00     0.198 A 
ATOM      4  C   UNL d   1      -0.281  -1.588   2.068  0.00  0.00     0.194 A 
ATOM      5  O   UNL d   1       0.628  -0.510   2.032  0.00  0.00    -0.362 OA
ATOM      6  C   UNL d   1      -0.066  -0.738   0.838  0.00  0.00     0.139 A 
ATOM      7  C   UNL d   1      -1.038   0.393   0.559  0.00  0.00     0.185 A 
ATOM      8  O   UNL d   1      -1.144   0.778  -0.792  0.00  0.00    -0.357 OA
ATOM      9  C   UNL d   1      -0.488   1.692   0.067  0.00  0.00     0.169 A 
ATOM     10  C   UNL d   1       1.053   1.658  -0.158  0.00  0.00     0.045 C 
ATOM     11  C   UNL d   1       1.757   0.305  -0.493  0.00  0.00     0.031 C 
ATOM     12  C   UNL d   1       2.391   0.373  -1.835  0.00  0.00    -0.038 A 
ATOM     13  C   UNL d   1       1.828  -0.152  -2.902  0.00  0.00     0.022 A 
ATOM     14  C   UNL d   1       0.481  -0.790  -2.872  0.00  0.00     0.046 C 
ATOM     15  C   UNL d   1       0.258  -1.571  -1.555  0.00  0.00     0.018 C 
ATOM     16  C   UNL d   1       0.966  -1.020  -0.270  0.00  0.00     0.001 C 
ATOM     17  C   UNL d   1       1.968  -2.085   0.161  0.00  0.00     0.019 C 
ATOM     18  C   UNL d   1       2.615   0.274  -4.037  0.00  0.00     0.289 A 
ATOM     19  O   UNL d   1       2.367   0.020  -5.242  0.00  0.00    -0.260 OA
ATOM     20  O   UNL d   1       3.683   1.044  -3.603  0.00  0.00    -0.313 OA
ATOM     21  C   UNL d   1       3.625   1.153  -2.181  0.00  0.00     0.214 A 
ATOM     22  C   UNL d   1      -2.355   0.337   1.244  0.00  0.00     0.204 C 
ATOM     23  O   UNL d   1      -3.405   0.405   0.623  0.00  0.00    -0.291 OA
ENDROOT
BRANCH   1  24
ATOM     24  C   UNL d   1      -3.024   0.741   3.727  0.00  0.00     0.022 C 
ATOM     25  C   UNL d   1      -2.243   2.027   3.931  0.00  0.00     0.013 C 
ATOM     26  C   UNL d   1      -3.205   0.040   5.064  0.00  0.00     0.013 C 
ENDBRANCH   1  24
TORSDOF 1
