REMARK  5 active torsions:
REMARK  status: ('A' for Active; 'I' for Inactive)
REMARK    1  A    between atoms: CA_3  and  C_24 
REMARK    2  A    between atoms: CA_7  and  N_10 
REMARK       I    between atoms: N_10  and  C_12 
REMARK    3  A    between atoms: C_12  and  C_14 
REMARK    4  A    between atoms: C_15  and  O_22 
REMARK    5  A    between atoms: C_19  and  O_20 
ROOT
ATOM      1  N   UNL d   1      -0.659  -0.189  -0.236  0.00  0.00    -0.342 N 
ATOM      2  HN  UNL d   1      -0.938  -1.145  -0.019  1.00  0.00     0.163 HD
ATOM      3  C   UNL d   1      -1.603   0.866  -0.030  0.00  0.00     0.258 C 
ATOM      4  O   UNL d   1      -1.288   2.050  -0.333  0.00  0.00    -0.267 OA
ENDROOT
BRANCH   1   5
ATOM      5  CA  UNL d   1       0.684   0.049  -0.744  0.00  0.00     0.199 A 
ATOM      6  C   UNL d   1       1.551   0.434   0.330  0.00  0.00     0.160 A 
ATOM      7  N   UNL d   1       2.361  -0.740   0.231  0.00  0.00    -0.219 NA
ATOM      8  S   UNL d   1       2.672   1.802  -0.126  0.00  0.00    -0.135 SA
ATOM      9  CA  UNL d   1       3.793  -0.671   0.351  0.00  0.00     0.186 C 
ATOM     10  C   UNL d   1       1.430  -1.242  -0.804  0.00  0.00     0.227 A 
ATOM     11  C   UNL d   1       4.176   0.724  -0.178  0.00  0.00     0.029 C 
ATOM     12  C   UNL d   1       5.245   1.320   0.714  0.00  0.00     0.029 C 
ATOM     13  C   UNL d   1       4.685   0.706  -1.612  0.00  0.00     0.029 C 
ATOM     14  O   UNL d   1       1.337  -2.294  -1.490  0.00  0.00    -0.277 OA
BRANCH   9  15
ATOM     15  C   UNL d   1       4.497  -1.855  -0.250  0.00  0.00     0.193 C 
ATOM     16  O   UNL d   1       5.319  -2.503   0.447  0.00  0.00    -0.647 OA
ATOM     17  OXT UNL d   1       4.267  -2.233  -1.567  0.00  0.00    -0.647 OA
ENDBRANCH   9  15
ENDBRANCH   1   5
BRANCH   3  18
ATOM     18  C   UNL d   1      -2.949   0.571   0.528  0.00  0.00     0.098 A 
ATOM     19  C   UNL d   1      -4.056   1.389   0.195  0.00  0.00     0.086 A 
ATOM     20  C   UNL d   1      -5.321   1.099   0.730  0.00  0.00     0.038 A 
ATOM     21  C   UNL d   1      -5.502   0.015   1.583  0.00  0.00     0.005 A 
ATOM     22  C   UNL d   1      -4.418  -0.793   1.916  0.00  0.00     0.038 A 
ATOM     23  C   UNL d   1      -3.140  -0.528   1.402  0.00  0.00     0.086 A 
BRANCH  19  24
ATOM     24  O   UNL d   1      -3.892   2.473  -0.677  0.00  0.00    -0.355 OA
ATOM     25  C   UNL d   1      -4.960   3.331  -1.057  0.00  0.00     0.210 C 
ENDBRANCH  19  24
BRANCH  23  26
ATOM     26  O   UNL d   1      -2.054  -1.335   1.767  0.00  0.00    -0.355 OA
ATOM     27  C   UNL d   1      -2.176  -2.449   2.641  0.00  0.00     0.210 C 
ENDBRANCH  23  26
ENDBRANCH   3  18
TORSDOF 5
