REMARK  4 active torsions:
REMARK  status: ('A' for Active; 'I' for Inactive)
REMARK    1  A    between atoms: N_2  and  C_5 
REMARK    2  A    between atoms: C_5  and  C_6 
REMARK    3  A    between atoms: C_6  and  C_7 
REMARK    4  A    between atoms: C_7  and  C_8 
ROOT
ATOM      1  C   UNL d   1       0.386   0.217  -0.243  0.00  0.00     0.015 C 
ATOM      2  C   UNL d   1       1.138   0.005   1.102  0.00  0.00     0.020 C 
ATOM      3  C   UNL d   1       0.130  -0.028   2.304  0.00  0.00     0.015 C 
ATOM      4  C   UNL d   1      -1.330   0.182   1.816  0.00  0.00     0.052 C 
ATOM      5  C   UNL d   1      -1.559  -0.902   0.781  0.00  0.00    -0.042 A 
ATOM      6  C   UNL d   1      -2.582  -1.848   0.855  0.00  0.00     0.008 A 
ATOM      7  C   UNL d   1      -2.713  -2.791  -0.172  0.00  0.00     0.001 A 
ATOM      8  C   UNL d   1      -1.832  -2.781  -1.263  0.00  0.00     0.001 A 
ATOM      9  C   UNL d   1      -0.806  -1.830  -1.339  0.00  0.00     0.009 A 
ATOM     10  C   UNL d   1      -0.665  -0.891  -0.311  0.00  0.00    -0.038 A 
ATOM     11  C   UNL d   1      -1.301   1.482   1.037  0.00  0.00    -0.042 A 
ATOM     12  C   UNL d   1      -2.086   2.595   1.340  0.00  0.00     0.008 A 
ATOM     13  C   UNL d   1      -1.972   3.745   0.550  0.00  0.00     0.001 A 
ATOM     14  C   UNL d   1      -1.079   3.780  -0.532  0.00  0.00     0.001 A 
ATOM     15  C   UNL d   1      -0.289   2.664  -0.837  0.00  0.00     0.009 A 
ATOM     16  C   UNL d   1      -0.401   1.510  -0.051  0.00  0.00    -0.038 A 
ENDROOT
BRANCH   1  17
ATOM     17  C   UNL d   1       1.336   0.276  -1.454  0.00  0.00     0.021 C 
BRANCH  17  18
ATOM     18  C   UNL d   1       2.224  -0.955  -1.598  0.00  0.00     0.029 C 
BRANCH  18  19
ATOM     19  C   UNL d   1       3.519  -0.762  -0.834  0.00  0.00     0.231 C 
BRANCH  19  20
ATOM     20  N   UNL d   1       4.336  -1.954  -0.960  0.00  0.00    -0.079 N 
ATOM     21  C   UNL d   1       5.544  -1.714  -0.192  0.00  0.00     0.266 C 
ATOM     22  HN2 UNL d   1       4.520  -2.216  -1.928  1.00  0.00     0.276 HD
ATOM     23  HN1 UNL d   1       3.849  -2.808  -0.687  1.00  0.00     0.276 HD
ENDBRANCH  19  20
ENDBRANCH  18  19
ENDBRANCH  17  18
ENDBRANCH   1  17
TORSDOF 4
