REMARK  Name = fda_4725
REMARK  2 active torsions:
REMARK  status: ('A' for Active; 'I' for Inactive)
REMARK    1  A    between atoms: N_9  and  S_10
REMARK    2  A    between atoms: S_10  and  C_13
REMARK                            x       y       z     vdW  Elec       q    Type
REMARK                         _______ _______ _______ _____ _____    ______ ____
ROOT
ATOM      1  C   UNL A   1       5.527   1.556  -2.748  0.00  0.00    +0.055 C 
ATOM      2  C   UNL A   1       4.364   1.063  -1.961  0.00  0.00    +0.096 A 
ATOM      3  C   UNL A   1       3.825  -0.202  -2.000  0.00  0.00    +0.141 A 
ATOM      4  O   UNL A   1       2.818  -0.239  -1.167  0.00  0.00    -0.413 OA
ATOM      5  C   UNL A   1       2.735   0.959  -0.629  0.00  0.00    +0.404 A 
ATOM      6  N   UNL A   1       3.673   1.817  -1.085  0.00  0.00    -0.180 NA
ATOM      7  N   UNL A   1       1.754   1.336   0.343  0.00  0.00    -0.004 NA
ATOM      8  C   UNL A   1       0.738   0.474   0.865  0.00  0.00    +0.529 C 
ATOM      9  N   UNL A   1      -0.181   0.994   1.828  0.00  0.00    +0.071 NA
ATOM     10  C   UNL A   1       4.281  -1.350  -2.832  0.00  0.00    +0.074 C 
ATOM     11  N   UNL A   1       0.648  -0.756   0.473  0.00  0.00    +0.135 NA
ENDROOT
BRANCH   9  12
ATOM     12  S   UNL A   1      -1.461   0.051   2.519  0.00  0.00    +0.156 S 
ATOM     13  O   UNL A   1      -0.870  -1.124   3.246  0.00  0.00    -0.132 OA
ATOM     14  O   UNL A   1      -2.229   0.896   3.496  0.00  0.00    -0.132 OA
BRANCH  12  15
ATOM     15  C   UNL A   1      -2.547  -0.496   1.254  0.00  0.00    +0.144 A 
ATOM     16  C   UNL A   1      -2.984  -1.825   1.225  0.00  0.00    +0.023 A 
ATOM     17  C   UNL A   1      -3.847  -2.257   0.213  0.00  0.00    +0.019 A 
ATOM     18  C   UNL A   1      -4.275  -1.360  -0.770  0.00  0.00    +0.089 A 
ATOM     19  C   UNL A   1      -3.840  -0.031  -0.742  0.00  0.00    +0.019 A 
ATOM     20  C   UNL A   1      -2.977   0.400   0.270  0.00  0.00    +0.023 A 
ATOM     21  N   UNL A   1      -5.152  -1.799  -1.800  0.00  0.00    -0.128 NA
ENDBRANCH  12  15
ENDBRANCH   9  12
TORSDOF 2
