REMARK  5 active torsions:
REMARK  status: ('A' for Active; 'I' for Inactive)
REMARK    1  A    between atoms: C1*_13  and  N9_9 
REMARK    2  A    between atoms: C2*_14  and  O2*_23 
REMARK    3  A    between atoms: C3*_15  and  O3*_21 
REMARK    4  A    between atoms: C4*_16  and  C5*_18 
REMARK    5  A    between atoms: C5*_18  and  O5*_19 
ROOT
ATOM      1  C2   A1 d   1      -1.840  -0.552  -2.102  0.00  0.00     0.183 A 
ATOM      2  N1   A1 d   1      -3.127  -0.778  -1.683  0.00  0.00    -0.339 N 
ATOM      3  H1   A1 d   1      -3.857  -0.943  -2.376  1.00  0.00     0.167 HD
ATOM      4  C6   A1 d   1      -3.448  -0.785  -0.355  0.00  0.00     0.148 A 
ATOM      5  C5   A1 d   1      -2.429  -0.558   0.558  0.00  0.00     0.119 A 
ATOM      6  C4   A1 d   1      -1.171  -0.340   0.121  0.00  0.00     0.142 A 
ATOM      7  N3   A1 d   1      -0.842  -0.329  -1.194  0.00  0.00    -0.336 N 
ATOM      8  H3   A1 d   1       0.117  -0.159  -1.495  1.00  0.00     0.168 HD
ATOM      9  N9   A1 d   1      -0.366  -0.143   1.173  0.00  0.00    -0.297 N 
ATOM     10  C8   A1 d   1      -1.184  -0.246   2.250  0.00  0.00     0.188 A 
ATOM     11  N7   A1 d   1      -2.477  -0.506   1.902  0.00  0.00    -0.346 N 
ATOM     12  H7   A1 d   1      -3.284  -0.631   2.513  1.00  0.00     0.167 HD
ATOM     13  N6   A1 d   1      -4.787  -1.017   0.067  0.00  0.00    -0.080 NA
ENDROOT
BRANCH   9  14
ATOM     14  C1*  A1 d   1       1.063   0.146   1.192  0.00  0.00     0.262 C 
ATOM     15  O4*  A1 d   1       1.773  -0.842   0.481  0.00  0.00    -0.353 OA
ATOM     16  C4*  A1 d   1       2.490  -0.191  -0.539  0.00  0.00     0.179 C 
ATOM     17  C3*  A1 d   1       2.538   1.290  -0.250  0.00  0.00     0.182 C 
ATOM     18  C2*  A1 d   1       1.337   1.512   0.603  0.00  0.00     0.198 C 
BRANCH  16  19
ATOM     19  C5*  A1 d   1       3.894  -0.765  -0.623  0.00  0.00     0.198 C 
BRANCH  19  20
ATOM     20  O5*  A1 d   1       4.524  -0.321  -1.786  0.00  0.00    -0.398 OA
ATOM     21  H5*  A1 d   1       5.402  -0.680  -1.839  1.00  0.00     0.209 HD
ENDBRANCH  19  20
ENDBRANCH  16  19
BRANCH  17  22
ATOM     22  O3*  A1 d   1       2.414   2.011  -1.437  0.00  0.00    -0.390 OA
ATOM     23  H3*  A1 d   1       3.180   1.870  -1.981  1.00  0.00     0.210 HD
ENDBRANCH  17  22
BRANCH  18  24
ATOM     24  O2*  A1 d   1       1.639   2.415   1.622  0.00  0.00    -0.388 OA
ATOM     25  H2*  A1 d   1       1.811   3.273   1.252  1.00  0.00     0.210 HD
ENDBRANCH  18  24
ENDBRANCH   9  14
TORSDOF 5
