REMARK  14 active torsions:
REMARK  status: ('A' for Active; 'I' for Inactive)
REMARK    1  A    between atoms: C_2  and  O_3 
REMARK    2  A    between atoms: C_4  and  O_3 
REMARK    3  A    between atoms: C_5  and  O_35 
REMARK    4  A    between atoms: C_6  and  O_27 
REMARK    5  A    between atoms: C_7  and  C_9 
REMARK    6  A    between atoms: C_9  and  C_10 
REMARK    7  A    between atoms: C_9  and  O_19 
REMARK    8  A    between atoms: C_10  and  O_11 
REMARK    9  A    between atoms: O_11  and  C_12 
REMARK   10  A    between atoms: C_12  and  C_13 
REMARK   11  A    between atoms: O_19  and  C_20 
REMARK   12  A    between atoms: C_20  and  C_21 
REMARK   13  A    between atoms: O_27  and  C_28 
REMARK   14  A    between atoms: C_28  and  C_29 
ROOT
ATOM      1  C   UNL d   1      -1.698  -3.310   0.238  0.00  0.00     0.291 C 
ATOM      2  C   UNL d   1      -2.321  -2.827   1.535  0.00  0.00     0.204 C 
ATOM      3  C   UNL d   1      -1.504  -1.617   1.881  0.00  0.00     0.187 C 
ATOM      4  C   UNL d   1      -0.159  -2.006   1.280  0.00  0.00     0.187 C 
ATOM      5  O   UNL d   1      -0.337  -2.945   0.239  0.00  0.00    -0.348 OA
ENDROOT
BRANCH   4   6
ATOM      6  C   UNL d   1       0.713  -0.826   0.840  0.00  0.00     0.177 C 
BRANCH   6   7
ATOM      7  C   UNL d   1       2.176  -1.227   0.938  0.00  0.00     0.202 C 
BRANCH   7   8
ATOM      8  O   UNL d   1       2.991  -0.119   0.703  0.00  0.00    -0.384 OA
BRANCH   8   9
ATOM      9  C   UNL d   1       4.028  -0.239   1.629  0.00  0.00     0.206 C 
BRANCH   9  10
ATOM     10  C   UNL d   1       5.341  -0.171   0.931  0.00  0.00    -0.035 A 
ATOM     11  C   UNL d   1       5.917   1.070   0.637  0.00  0.00     0.009 A 
ATOM     12  C   UNL d   1       7.141   1.131  -0.036  0.00  0.00     0.001 A 
ATOM     13  C   UNL d   1       7.786  -0.048  -0.423  0.00  0.00     0.000 A 
ATOM     14  C   UNL d   1       7.207  -1.289  -0.138  0.00  0.00     0.001 A 
ATOM     15  C   UNL d   1       5.983  -1.350   0.537  0.00  0.00     0.009 A 
ENDBRANCH   9  10
ENDBRANCH   8   9
ENDBRANCH   7   8
ENDBRANCH   6   7
BRANCH   6  16
ATOM     16  O   UNL d   1       0.408  -0.457  -0.476  0.00  0.00    -0.377 OA
BRANCH  16  17
ATOM     17  C   UNL d   1       0.169   0.919  -0.426  0.00  0.00     0.207 C 
BRANCH  17  18
ATOM     18  C   UNL d   1      -0.678   1.325  -1.581  0.00  0.00    -0.035 A 
ATOM     19  C   UNL d   1      -2.044   1.019  -1.595  0.00  0.00     0.009 A 
ATOM     20  C   UNL d   1      -2.836   1.397  -2.683  0.00  0.00     0.001 A 
ATOM     21  C   UNL d   1      -2.262   2.077  -3.761  0.00  0.00     0.000 A 
ATOM     22  C   UNL d   1      -0.895   2.377  -3.752  0.00  0.00     0.001 A 
ATOM     23  C   UNL d   1      -0.103   2.000  -2.663  0.00  0.00     0.009 A 
ENDBRANCH  17  18
ENDBRANCH  16  17
ENDBRANCH   6  16
ENDBRANCH   4   6
BRANCH   3  24
ATOM     24  O   UNL d   1      -2.027  -0.480   1.252  0.00  0.00    -0.376 OA
BRANCH  24  25
ATOM     25  C   UNL d   1      -2.347   0.395   2.293  0.00  0.00     0.207 C 
BRANCH  25  26
ATOM     26  C   UNL d   1      -2.780   1.701   1.728  0.00  0.00    -0.035 A 
ATOM     27  C   UNL d   1      -4.083   1.857   1.240  0.00  0.00     0.009 A 
ATOM     28  C   UNL d   1      -4.474   3.070   0.666  0.00  0.00     0.001 A 
ATOM     29  C   UNL d   1      -3.562   4.126   0.572  0.00  0.00     0.000 A 
ATOM     30  C   UNL d   1      -2.258   3.969   1.053  0.00  0.00     0.001 A 
ATOM     31  C   UNL d   1      -1.867   2.756   1.628  0.00  0.00     0.009 A 
ENDBRANCH  25  26
ENDBRANCH  24  25
ENDBRANCH   3  24
BRANCH   2  32
ATOM     32  O   UNL d   1      -3.682  -2.530   1.396  0.00  0.00    -0.388 OA
ATOM     33  HO  UNL d   1      -4.072  -2.228   2.208  1.00  0.00     0.210 HD
ENDBRANCH   2  32
BRANCH   1  34
ATOM     34  O   UNL d   1      -2.327  -2.726  -0.868  0.00  0.00    -0.359 OA
BRANCH  34  35
ATOM     35  C   UNL d   1      -2.573  -3.784  -1.742  0.00  0.00     0.166 C 
ATOM     36  C   UNL d   1      -3.042  -3.237  -3.074  0.00  0.00     0.033 C 
ENDBRANCH  34  35
ENDBRANCH   1  34
TORSDOF 14
