REMARK  10 active torsions:
REMARK  status: ('A' for Active; 'I' for Inactive)
REMARK    1  A    between atoms: O_2  and  C_3 
REMARK    2  A    between atoms: C_3  and  C_5 
REMARK    3  A    between atoms: C_8  and  O_9 
REMARK    4  A    between atoms: C_10  and  O_9 
REMARK    5  A    between atoms: C_12  and  C_13 
REMARK    6  A    between atoms: C_13  and  O_14 
REMARK    7  A    between atoms: C_16  and  O_17 
REMARK    8  A    between atoms: C_19  and  O_20 
REMARK    9  A    between atoms: C_22  and  O_23 
REMARK   10  A    between atoms: C_28  and  O_29 
ROOT
ATOM      1  C   UNL d   1      -3.221   0.565  -0.363  0.00  0.00     0.044 C 
ATOM      2  C   UNL d   1      -2.574   1.707  -0.619  0.00  0.00     0.151 C 
ATOM      3  O   UNL d   1      -1.224   1.870  -0.298  0.00  0.00    -0.331 OA
ATOM      4  C   UNL d   1      -0.397   0.764   0.050  0.00  0.00     0.273 C 
ATOM      5  C   UNL d   1      -1.158  -0.225   0.940  0.00  0.00     0.056 C 
ATOM      6  C   UNL d   1      -0.406  -1.544   0.978  0.00  0.00     0.020 C 
ATOM      7  C   UNL d   1      -0.676  -2.229   2.312  0.00  0.00     0.013 C 
ATOM      8  C   UNL d   1      -0.928  -2.342  -0.223  0.00  0.00     0.123 C 
ATOM      9  C   UNL d   1      -2.274  -1.756  -0.614  0.00  0.00     0.042 C 
ATOM     10  C   UNL d   1      -2.513  -0.581   0.321  0.00  0.00     0.038 C 
ENDROOT
BRANCH   4  11
ATOM     11  O   UNL d   1       0.749   1.224   0.704  0.00  0.00    -0.328 OA
BRANCH  11  12
ATOM     12  C   UNL d   1       1.808   0.851  -0.127  0.00  0.00     0.294 C 
ATOM     13  O   UNL d   1       2.514  -0.215   0.452  0.00  0.00    -0.348 OA
ATOM     14  C   UNL d   1       3.321  -0.730  -0.577  0.00  0.00     0.179 C 
ATOM     15  C   UNL d   1       4.458   0.242  -0.931  0.00  0.00     0.180 C 
ATOM     16  C   UNL d   1       4.215   1.659  -0.389  0.00  0.00     0.183 C 
ATOM     17  C   UNL d   1       2.731   2.054  -0.372  0.00  0.00     0.204 C 
BRANCH  14  18
ATOM     18  C   UNL d   1       3.898  -2.070  -0.163  0.00  0.00     0.198 C 
BRANCH  18  19
ATOM     19  O   UNL d   1       2.871  -3.002  -0.014  0.00  0.00    -0.398 OA
ATOM     20  HO  UNL d   1       3.233  -3.841   0.245  1.00  0.00     0.209 HD
ENDBRANCH  18  19
ENDBRANCH  14  18
BRANCH  15  21
ATOM     21  O   UNL d   1       4.614   0.288  -2.316  0.00  0.00    -0.390 OA
ATOM     22  HO  UNL d   1       5.317   0.888  -2.535  1.00  0.00     0.210 HD
ENDBRANCH  15  21
BRANCH  16  23
ATOM     23  O   UNL d   1       4.734   1.755   0.903  0.00  0.00    -0.390 OA
ATOM     24  HO  UNL d   1       4.584   2.631   1.238  1.00  0.00     0.210 HD
ENDBRANCH  16  23
BRANCH  17  25
ATOM     25  O   UNL d   1       2.390   2.661  -1.580  0.00  0.00    -0.388 OA
ATOM     26  HO  UNL d   1       1.472   2.905  -1.569  1.00  0.00     0.210 HD
ENDBRANCH  17  25
ENDBRANCH  11  12
ENDBRANCH   4  11
BRANCH   1  27
ATOM     27  C   UNL d   1      -4.646   0.444  -0.718  0.00  0.00     0.291 C 
ATOM     28  O   UNL d   1      -5.276  -0.613  -0.437  0.00  0.00    -0.260 OA
BRANCH  27  29
ATOM     29  O   UNL d   1      -5.297   1.500  -1.361  0.00  0.00    -0.323 OA
ATOM     30  C   UNL d   1      -6.669   1.429  -1.722  0.00  0.00     0.213 C 
ENDBRANCH  27  29
ENDBRANCH   1  27
BRANCH   8  31
ATOM     31  O   UNL d   1      -1.046  -3.708   0.047  0.00  0.00    -0.395 OA
ATOM     32  HO  UNL d   1      -1.368  -4.203  -0.697  1.00  0.00     0.210 HD
ENDBRANCH   8  31
TORSDOF 10
