REMARK  4 active torsions:
REMARK  status: ('A' for Active; 'I' for Inactive)
REMARK    1  A    between atoms: C_2  and  N_3 
REMARK    2  A    between atoms: N_3  and  C_22 
REMARK    3  A    between atoms: C_7  and  C_8 
REMARK    4  A    between atoms: C_7  and  C_14 
ROOT
ATOM      1  N   UNL d   1       2.942   0.217  -0.946  0.00  0.00    -0.060 N 
ATOM      2  C   UNL d   1       2.651   1.635  -0.684  0.00  0.00     0.242 C 
ATOM      3  C   UNL d   1       1.355   1.724   0.105  0.00  0.00     0.065 C 
ATOM      4  C   UNL d   1       0.734   0.387  -0.053  0.00  0.00    -0.036 C 
ATOM      5  C   UNL d   1      -0.564   0.118   0.233  0.00  0.00    -0.011 C 
ATOM      6  C   UNL d   1       1.692  -0.547  -0.713  0.00  0.00     0.216 C 
ATOM      7  C   UNL d   1       1.867  -1.859   0.063  0.00  0.00     0.045 C 
ENDROOT
BRANCH   5   8
ATOM      8  C   UNL d   1      -1.195  -1.158  -0.191  0.00  0.00    -0.025 A 
ATOM      9  C   UNL d   1      -1.050  -1.634  -1.504  0.00  0.00     0.012 A 
ATOM     10  C   UNL d   1      -1.669  -2.823  -1.899  0.00  0.00     0.001 A 
ATOM     11  C   UNL d   1      -2.446  -3.542  -0.987  0.00  0.00     0.000 A 
ATOM     12  C   UNL d   1      -2.606  -3.071   0.319  0.00  0.00     0.001 A 
ATOM     13  C   UNL d   1      -1.986  -1.882   0.714  0.00  0.00     0.012 A 
ENDBRANCH   5   8
BRANCH   5  14
ATOM     14  C   UNL d   1      -1.411   1.100   0.962  0.00  0.00    -0.025 A 
ATOM     15  C   UNL d   1      -0.910   1.808   2.068  0.00  0.00     0.012 A 
ATOM     16  C   UNL d   1      -1.724   2.709   2.761  0.00  0.00     0.001 A 
ATOM     17  C   UNL d   1      -3.047   2.906   2.360  0.00  0.00     0.000 A 
ATOM     18  C   UNL d   1      -3.559   2.200   1.269  0.00  0.00     0.001 A 
ATOM     19  C   UNL d   1      -2.745   1.299   0.576  0.00  0.00     0.012 A 
ENDBRANCH   5  14
BRANCH   1  20
ATOM     20  C   UNL d   1       4.098  -0.197  -0.126  0.00  0.00     0.234 C 
ATOM     21  C   UNL d   1       3.909   0.042   1.374  0.00  0.00     0.035 C 
ENDBRANCH   1  20
BRANCH   1  22
ATOM     22  C   UNL d   1       3.360   0.058  -2.345  0.00  0.00     0.234 C 
ATOM     23  C   UNL d   1       2.305   0.508  -3.357  0.00  0.00     0.035 C 
ENDBRANCH   1  22
TORSDOF 4
