REMARK  1 active torsions:
REMARK  status: ('A' for Active; 'I' for Inactive)
REMARK    1  A    between atoms: C_11  and  C_12 
ROOT
ATOM      1  N   UNL d   1      -0.140  -1.014  -0.448  0.00  0.00    -0.339 N 
ATOM      2  HN  UNL d   1       0.240  -1.838  -0.912  1.00  0.00     0.167 HD
ATOM      3  C   UNL d   1      -1.422  -0.656  -0.291  0.00  0.00     0.060 A 
ATOM      4  C   UNL d   1      -2.555  -1.335  -0.733  0.00  0.00     0.032 A 
ATOM      5  C   UNL d   1      -3.806  -0.758  -0.448  0.00  0.00     0.002 A 
ATOM      6  C   UNL d   1      -3.890   0.462   0.260  0.00  0.00     0.002 A 
ATOM      7  C   UNL d   1      -2.723   1.120   0.691  0.00  0.00     0.032 A 
ATOM      8  C   UNL d   1      -1.502   0.520   0.391  0.00  0.00     0.060 A 
ATOM      9  N   UNL d   1      -0.275   0.962   0.699  0.00  0.00    -0.339 N 
ATOM     10  HN  UNL d   1      -0.009   1.808   1.202  1.00  0.00     0.167 HD
ATOM     11  C   UNL d   1       0.526  -0.001   0.170  0.00  0.00     0.134 A 
ENDROOT
BRANCH  11  12
ATOM     12  C   UNL d   1       1.990   0.052   0.260  0.00  0.00     0.083 A 
ATOM     13  C   UNL d   1       2.811  -0.936  -0.282  0.00  0.00     0.084 A 
ATOM     14  S   UNL d   1       4.383  -0.455   0.063  0.00  0.00    -0.094 SA
ATOM     15  C   UNL d   1       3.974   0.958   0.869  0.00  0.00     0.138 A 
ATOM     16  N   UNL d   1       2.629   1.080   0.885  0.00  0.00    -0.357 N 
ATOM     17  HN  UNL d   1       2.141   1.862   1.321  1.00  0.00     0.166 HD
ENDBRANCH  11  12
TORSDOF 1
