REMARK  4 active torsions:
REMARK  status: ('A' for Active; 'I' for Inactive)
REMARK    1  A    between atoms: C_2  and  C_4 
REMARK    2  A    between atoms: C_2  and  O_6 
REMARK    3  A    between atoms: O_6  and  C_7 
REMARK    4  A    between atoms: C_13  and  C_10 
ROOT
ATOM      1  C   UNL d   1      -0.721  -0.536  -0.092  0.00  0.00     0.070 A 
ATOM      2  C   UNL d   1       0.125  -1.643  -0.213  0.00  0.00     0.037 A 
ATOM      3  C   UNL d   1       1.465  -1.474  -0.570  0.00  0.00     0.010 A 
ATOM      4  C   UNL d   1       1.980  -0.190  -0.798  0.00  0.00    -0.051 A 
ATOM      5  C   UNL d   1       1.129   0.918  -0.701  0.00  0.00     0.010 A 
ATOM      6  C   UNL d   1      -0.210   0.748  -0.343  0.00  0.00     0.037 A 
ENDROOT
BRANCH   1   7
ATOM      7  O   UNL d   1      -2.060  -0.750   0.274  0.00  0.00    -0.330 OA
BRANCH   7   8
ATOM      8  C   UNL d   1      -3.059   0.264   0.444  0.00  0.00     0.148 C 
ATOM      9  C   UNL d   1      -3.267   1.022  -0.860  0.00  0.00     0.058 C 
ATOM     10  C   UNL d   1      -2.642   1.236   1.539  0.00  0.00     0.058 C 
BRANCH   8  11
ATOM     11  C   UNL d   1      -4.356  -0.381   0.839  0.00  0.00     0.209 C 
ATOM     12  O   UNL d   1      -5.381   0.324   1.044  0.00  0.00    -0.646 OA
ATOM     13  O   UNL d   1      -4.440  -1.761   0.985  0.00  0.00    -0.646 OA
ENDBRANCH   8  11
ENDBRANCH   7   8
ENDBRANCH   1   7
BRANCH   4  14
ATOM     14  C   UNL d   1       3.405   0.007  -1.232  0.00  0.00     0.060 A 
ATOM     15  C   UNL d   1       4.281   0.621  -0.141  0.00  0.00     0.121 A 
ATOM     16  C   UNL d   1       4.376  -0.857  -0.429  0.00  0.00     0.055 A 
ATOM     17 CL   UNL d   1       3.658   0.942   1.504  0.00  0.00    -0.101 Cl
ATOM     18 CL   UNL d   1       5.716   1.511  -0.697  0.00  0.00    -0.101 Cl
ENDBRANCH   4  14
TORSDOF 4
