REMARK  6 active torsions:
REMARK  status: ('A' for Active; 'I' for Inactive)
REMARK    1  A    between atoms: O_2  and  C_3 
REMARK    2  A    between atoms: C_4  and  C_22 
REMARK    3  A    between atoms: C_6  and  N_13 
REMARK    4  A    between atoms: C_8  and  C_9 
REMARK    5  A    between atoms: C_27  and  N_28 
REMARK    6  A    between atoms: N_28  and  S_30 
ROOT
ATOM      1  C   UNL d   1      -1.594  -0.669   2.148  0.00  0.00     0.086 A 
ATOM      2  C   UNL d   1      -0.915  -0.267   0.968  0.00  0.00     0.010 A 
ATOM      3  C   UNL d   1      -1.658   0.077  -0.167  0.00  0.00     0.045 A 
ATOM      4  C   UNL d   1      -3.057   0.060  -0.159  0.00  0.00     0.045 A 
ATOM      5  C   UNL d   1      -3.713  -0.268   1.032  0.00  0.00     0.041 A 
ATOM      6  C   UNL d   1      -3.010  -0.621   2.195  0.00  0.00    -0.014 A 
ENDROOT
BRANCH   2   7
ATOM      7  C   UNL d   1       0.554  -0.111   0.903  0.00  0.00    -0.022 A 
ATOM      8  C   UNL d   1       1.251   0.522   1.944  0.00  0.00     0.013 A 
ATOM      9  C   UNL d   1       2.635   0.704   1.868  0.00  0.00     0.013 A 
ATOM     10  C   UNL d   1       3.334   0.264   0.743  0.00  0.00    -0.024 A 
ATOM     11  C   UNL d   1       4.718   0.442   0.660  0.00  0.00     0.042 A 
ATOM     12  C   UNL d   1       2.640  -0.360  -0.318  0.00  0.00    -0.025 A 
ATOM     13  C   UNL d   1       5.418   0.005  -0.470  0.00  0.00     0.043 A 
ATOM     14  C   UNL d   1       4.723  -0.613  -1.522  0.00  0.00     0.031 A 
ATOM     15  C   UNL d   1       3.339  -0.794  -1.446  0.00  0.00     0.014 A 
ATOM     16  C   UNL d   1       1.257  -0.538  -0.234  0.00  0.00     0.024 A 
BRANCH  13  17
ATOM     17  N   UNL d   1       6.834   0.200  -0.528  0.00  0.00    -0.285 N 
ATOM     18  HN  UNL d   1       7.289   0.654   0.264  1.00  0.00     0.178 HD
BRANCH  17  19
ATOM     19  S   UNL d   1       7.819  -0.290  -1.867  0.00  0.00     0.227 S 
ATOM     20  C   UNL d   1       7.359   0.621  -3.323  0.00  0.00     0.186 C 
ATOM     21  O   UNL d   1       7.652  -1.764  -2.108  0.00  0.00    -0.206 OA
ATOM     22  O   UNL d   1       9.258  -0.005  -1.547  0.00  0.00    -0.206 OA
ENDBRANCH  17  19
ENDBRANCH  13  17
ENDBRANCH   2   7
BRANCH   1  23
ATOM     23  O   UNL d   1      -0.900  -1.129   3.276  0.00  0.00    -0.354 OA
ATOM     24  C   UNL d   1       0.153  -2.079   3.193  0.00  0.00     0.210 C 
ENDBRANCH   1  23
BRANCH   6  25
ATOM     25  C   UNL d   1      -3.774  -1.004   3.459  0.00  0.00    -0.021 C 
ATOM     26  C   UNL d   1      -3.317  -0.152   4.630  0.00  0.00     0.019 C 
ATOM     27  C   UNL d   1      -5.279  -0.808   3.320  0.00  0.00     0.019 C 
ATOM     28  C   UNL d   1      -3.532  -2.467   3.787  0.00  0.00     0.019 C 
ENDBRANCH   6  25
BRANCH   4  29
ATOM     29  N   UNL d   1      -3.800   0.435  -1.342  0.00  0.00    -0.275 N 
ATOM     30  C   UNL d   1      -3.265   1.380  -2.171  0.00  0.00     0.107 A 
ATOM     31  C   UNL d   1      -3.936   1.793  -3.318  0.00  0.00     0.092 A 
ATOM     32  C   UNL d   1      -5.168   1.218  -3.603  0.00  0.00     0.250 A 
ATOM     33  O   UNL d   1      -5.805   1.569  -4.630  0.00  0.00    -0.268 OA
ATOM     34  N   UNL d   1      -5.681   0.274  -2.776  0.00  0.00    -0.275 N 
ATOM     35  C   UNL d   1      -5.015  -0.125  -1.659  0.00  0.00     0.333 A 
ATOM     36  HN  UNL d   1      -6.584  -0.145  -2.995  1.00  0.00     0.173 HD
ATOM     37  O   UNL d   1      -5.524  -1.025  -0.939  0.00  0.00    -0.246 OA
ENDBRANCH   4  29
TORSDOF 6
