REMARK  12 active torsions:
REMARK  status: ('A' for Active; 'I' for Inactive)
REMARK    1  A    between atoms: C_2  and  C_3 
REMARK    2  A    between atoms: C_3  and  C_4 
REMARK    3  A    between atoms: C_4  and  C_5 
REMARK    4  A    between atoms: C_10  and  C_11 
REMARK    5  A    between atoms: C_11  and  C_12 
REMARK    6  A    between atoms: C_12  and  C_13 
REMARK       I    between atoms: C_13  and  N_15 
REMARK    7  A    between atoms: N_15  and  O_17 
REMARK    8  A    between atoms: N_22  and  C_23 
REMARK    9  A    between atoms: C_23  and  C_24 
REMARK   10  A    between atoms: C_24  and  N_25 
REMARK   11  A    between atoms: N_25  and  C_26 
REMARK   12  A    between atoms: N_25  and  C_28 
ROOT
ATOM      1  C   UNL d   1      -2.056   0.074  -1.074  0.00  0.00     0.084 A 
ATOM      2  N   UNL d   1      -0.997   0.480  -1.823  0.00  0.00    -0.344 N 
ATOM      3  HN  UNL d   1      -0.999   0.893  -2.756  1.00  0.00     0.167 HD
ATOM      4  C   UNL d   1       0.055   0.203  -1.030  0.00  0.00     0.061 A 
ATOM      5  C   UNL d   1       1.403   0.415  -1.306  0.00  0.00     0.043 A 
ATOM      6  C   UNL d   1       2.341   0.036  -0.327  0.00  0.00    -0.034 A 
ATOM      7  C   UNL d   1       1.900  -0.545   0.891  0.00  0.00     0.014 A 
ATOM      8  C   UNL d   1       0.530  -0.748   1.139  0.00  0.00     0.033 A 
ATOM      9  C   UNL d   1      -0.362  -0.354   0.144  0.00  0.00     0.062 A 
ATOM     10  N   UNL d   1      -1.700  -0.438   0.131  0.00  0.00    -0.333 N 
ENDROOT
BRANCH   6  11
ATOM     11  C   UNL d   1       3.768   0.255  -0.600  0.00  0.00     0.017 C 
BRANCH  11  12
ATOM     12  C   UNL d   1       4.724  -0.072   0.266  0.00  0.00     0.077 C 
BRANCH  12  13
ATOM     13  C   UNL d   1       6.143   0.154  -0.025  0.00  0.00     0.264 C 
ATOM     14  O   UNL d   1       6.502   0.671  -1.118  0.00  0.00    -0.266 OA
ATOM     15  N   UNL d   1       7.119  -0.219   0.944  0.00  0.00    -0.234 N 
ATOM     16  HN  UNL d   1       6.820  -0.637   1.825  1.00  0.00     0.197 HD
BRANCH  15  17
ATOM     17  O   UNL d   1       8.438  -0.025   0.711  0.00  0.00    -0.287 OA
ATOM     18  HO  UNL d   1       9.089  -0.274   1.357  1.00  0.00     0.244 HD
ENDBRANCH  15  17
ENDBRANCH  12  13
ENDBRANCH  11  12
ENDBRANCH   6  11
BRANCH   1  19
ATOM     19  C   UNL d   1      -3.466   0.148  -1.563  0.00  0.00     0.076 C 
BRANCH  19  20
ATOM     20  C   UNL d   1      -3.906  -1.186  -2.154  0.00  0.00     0.007 C 
BRANCH  20  21
ATOM     21  C   UNL d   1      -3.264  -1.434  -3.511  0.00  0.00    -0.004 C 
ATOM     22  C   UNL d   1      -3.901  -0.553  -4.568  0.00  0.00     0.005 C 
ENDBRANCH  20  21
ENDBRANCH  19  20
ENDBRANCH   1  19
BRANCH  10  23
ATOM     23  C   UNL d   1      -2.577  -0.995   1.156  0.00  0.00     0.161 C 
BRANCH  23  24
ATOM     24  C   UNL d   1      -2.529  -0.162   2.446  0.00  0.00     0.292 C 
BRANCH  24  25
ATOM     25  N   UNL d   1      -3.352   1.059   2.419  0.00  0.00     0.089 N 
BRANCH  25  26
ATOM     26  C   UNL d   1      -2.799   2.021   1.476  0.00  0.00     0.268 C 
ATOM     27  C   UNL d   1      -1.732   2.859   2.154  0.00  0.00     0.037 C 
ENDBRANCH  25  26
BRANCH  25  28
ATOM     28  C   UNL d   1      -4.716   0.750   2.005  0.00  0.00     0.268 C 
ATOM     29  C   UNL d   1      -5.566   0.433   3.220  0.00  0.00     0.037 C 
ENDBRANCH  25  28
ENDBRANCH  24  25
ENDBRANCH  23  24
ENDBRANCH  10  23
TORSDOF 12
