REMARK  15 active torsions:
REMARK  status: ('A' for Active; 'I' for Inactive)
REMARK    1  A    between atoms: C_2  and  C_3 
REMARK    2  A    between atoms: C_3  and  C_4 
REMARK    3  A    between atoms: C_4  and  C_5 
REMARK    4  A    between atoms: C_5  and  C_6 
REMARK    5  A    between atoms: C_6  and  C_7 
REMARK    6  A    between atoms: C_6  and  O_25 
REMARK    7  A    between atoms: C_9  and  C_8 
REMARK    8  A    between atoms: C_10  and  O_23 
REMARK    9  A    between atoms: C_14  and  C_15 
REMARK   10  A    between atoms: C_15  and  C_16 
REMARK   11  A    between atoms: C_16  and  C_17 
REMARK   12  A    between atoms: C_17  and  C_18 
REMARK   13  A    between atoms: C_18  and  C_19 
REMARK   14  A    between atoms: C_19  and  C_20 
REMARK   15  A    between atoms: C_20  and  C_21 
ROOT
ATOM      1  C   UNL d   1       0.574  -1.891   1.140  0.00  0.00     0.048 C 
ATOM      2  C   UNL d   1       0.651  -1.675   2.666  0.00  0.00     0.133 C 
ATOM      3  C   UNL d   1       0.253  -0.238   2.944  0.00  0.00     0.111 C 
ATOM      4  C   UNL d   1      -0.435   0.176   1.699  0.00  0.00     0.134 C 
ATOM      5  O   UNL d   1      -0.984   1.260   1.583  0.00  0.00    -0.297 OA
ATOM      6  C   UNL d   1      -0.358  -0.816   0.594  0.00  0.00     0.065 C 
ENDROOT
BRANCH   1   7
ATOM      7  C   UNL d   1       1.909  -1.841   0.439  0.00  0.00    -0.020 C 
ATOM      8  C   UNL d   1       2.678  -0.749   0.438  0.00  0.00     0.001 C 
BRANCH   8   9
ATOM      9  C   UNL d   1       3.991  -0.745  -0.268  0.00  0.00     0.140 C 
BRANCH   9  10
ATOM     10  C   UNL d   1       4.545   0.671  -0.284  0.00  0.00     0.036 C 
BRANCH  10  11
ATOM     11  C   UNL d   1       5.748   0.778  -1.208  0.00  0.00     0.003 C 
BRANCH  11  12
ATOM     12  C   UNL d   1       5.304   0.752  -2.661  0.00  0.00    -0.000 C 
BRANCH  12  13
ATOM     13  C   UNL d   1       6.505   0.853  -3.584  0.00  0.00    -0.005 C 
ATOM     14  C   UNL d   1       7.032   2.275  -3.615  0.00  0.00     0.005 C 
ENDBRANCH  12  13
ENDBRANCH  11  12
ENDBRANCH  10  11
ENDBRANCH   9  10
BRANCH   9  15
ATOM     15  O   UNL d   1       4.883  -1.593   0.391  0.00  0.00    -0.392 OA
ATOM     16  HO  UNL d   1       4.537  -2.478   0.401  1.00  0.00     0.210 HD
ENDBRANCH   9  15
ENDBRANCH   8   9
ENDBRANCH   1   7
BRANCH   6  17
ATOM     17  C   UNL d   1      -1.730  -1.420   0.329  0.00  0.00     0.013 C 
BRANCH  17  18
ATOM     18  C   UNL d   1      -2.287  -0.937  -1.003  0.00  0.00     0.001 C 
BRANCH  18  19
ATOM     19  C   UNL d   1      -2.787   0.500  -0.917  0.00  0.00     0.000 C 
BRANCH  19  20
ATOM     20  C   UNL d   1      -4.067   0.593  -0.101  0.00  0.00     0.001 C 
BRANCH  20  21
ATOM     21  C   UNL d   1      -5.243   0.045  -0.892  0.00  0.00     0.010 C 
BRANCH  21  22
ATOM     22  C   UNL d   1      -6.521   0.129  -0.075  0.00  0.00     0.113 C 
BRANCH  22  23
ATOM     23  C   UNL d   1      -7.034   1.529  -0.035  0.00  0.00     0.172 C 
ATOM     24  O   UNL d   1      -6.809   2.253   0.969  0.00  0.00    -0.648 OA
ATOM     25  O   UNL d   1      -7.734   2.043  -1.118  0.00  0.00    -0.648 OA
ENDBRANCH  22  23
ENDBRANCH  21  22
ENDBRANCH  20  21
ENDBRANCH  19  20
ENDBRANCH  18  19
ENDBRANCH  17  18
ENDBRANCH   6  17
BRANCH   2  26
ATOM     26  O   UNL d   1       1.915  -1.952   3.194  0.00  0.00    -0.394 OA
ATOM     27  HO  UNL d   1       1.962  -1.819   4.133  1.00  0.00     0.210 HD
ENDBRANCH   2  26
TORSDOF 15
