REMARK  5 active torsions:
REMARK  status: ('A' for Active; 'I' for Inactive)
REMARK    1  A    between atoms: CA_3  and  C_2 
REMARK    2  A    between atoms: CA_3  and  C_4 
REMARK    3  A    between atoms: CA_3  and  N_7 
REMARK    4  A    between atoms: C_4  and  O_5 
REMARK       I    between atoms: N_7  and  C_9 
REMARK    5  A    between atoms: C_11  and  C_9 
ROOT
ATOM      1  C   UNL d   1       1.372   0.918   0.036  0.00  0.00     0.129 C 
ATOM      2  C   UNL d   1       0.824   1.719   1.215  0.00  0.00     0.290 C 
ATOM      3  C   UNL d   1      -1.429   1.675   0.320  0.00  0.00     0.260 C 
ATOM      4  C   UNL d   1      -2.482   1.340   1.425  0.00  0.00     0.081 C 
ATOM      5  C   UNL d   1      -3.518   0.410   0.857  0.00  0.00    -0.027 A 
ATOM      6  C   UNL d   1      -4.785   0.050   1.306  0.00  0.00     0.096 A 
ATOM      7  N   UNL d   1      -5.278  -0.963   0.532  0.00  0.00    -0.365 N 
ATOM      8  HN  UNL d   1      -6.186  -1.420   0.617  1.00  0.00     0.165 HD
ATOM      9  C   UNL d   1      -4.309  -1.231  -0.368  0.00  0.00     0.043 A 
ATOM     10  C   UNL d   1      -3.249  -0.416  -0.182  0.00  0.00     0.009 A 
ATOM     11  C   UNL d   1      -2.068  -0.500  -0.888  0.00  0.00    -0.015 A 
ATOM     12  C   UNL d   1      -1.975  -1.506  -1.870  0.00  0.00     0.013 A 
ATOM     13  C   UNL d   1      -3.084  -2.364  -2.098  0.00  0.00     0.003 A 
ATOM     14  C   UNL d   1      -4.272  -2.236  -1.337  0.00  0.00     0.030 A 
ATOM     15  C   UNL d   1      -0.997   0.432  -0.477  0.00  0.00    -0.017 C 
ATOM     16  C   UNL d   1       0.287   0.070  -0.558  0.00  0.00    -0.001 C 
ATOM     17  C   UNL d   1      -0.665   3.462   1.797  0.00  0.00     0.310 C 
ATOM     18  N   UNL d   1      -0.293   2.529   0.741  0.00  0.00     0.094 N 
ENDROOT
BRANCH   1  19
ATOM     19  C   UNL d   1       2.529   0.074   0.455  0.00  0.00     0.227 C 
ATOM     20  N   UNL d   1       3.795   0.262  -0.181  0.00  0.00    -0.354 N 
ATOM     21  HN  UNL d   1       3.882   0.988  -0.891  1.00  0.00     0.163 HD
ATOM     22  O   UNL d   1       2.389  -0.796   1.358  0.00  0.00    -0.273 OA
BRANCH  20  23
ATOM     23  CA  UNL d   1       4.966  -0.544   0.145  0.00  0.00     0.107 C 
BRANCH  23  24
ATOM     24  C   UNL d   1       6.224   0.116  -0.398  0.00  0.00     0.023 C 
ATOM     25  C   UNL d   1       6.549   1.365   0.399  0.00  0.00     0.007 C 
ENDBRANCH  23  24
BRANCH  23  26
ATOM     26  C   UNL d   1       4.822  -1.952  -0.422  0.00  0.00     0.189 C 
BRANCH  26  27
ATOM     27  O   UNL d   1       4.647  -1.915  -1.807  0.00  0.00    -0.399 OA
ATOM     28  HO  UNL d   1       4.557  -2.793  -2.160  1.00  0.00     0.209 HD
ENDBRANCH  26  27
ENDBRANCH  23  26
ENDBRANCH  20  23
ENDBRANCH   1  19
TORSDOF 5
