REMARK  Name = fda_5961
REMARK  6 active torsions:
REMARK  status: ('A' for Active; 'I' for Inactive)
REMARK    1  A    between atoms: N_2  and  C_4
REMARK    2  A    between atoms: C_4  and  C_5
REMARK    3  A    between atoms: C_5  and  O_6
REMARK    4  A    between atoms: O_6  and  C_7
REMARK    5  A    between atoms: C_7  and  C_8
REMARK    6  A    between atoms: C_7  and  C_15
REMARK                            x       y       z     vdW  Elec       q    Type
REMARK                         _______ _______ _______ _____ _____    ______ ____
ROOT
ATOM      1  C   UNL A   1      -0.079   0.992   0.773  0.00  0.00    +0.177 C 
ENDROOT
BRANCH   1   2
ATOM      2  C   UNL A   1      -0.474  -0.452   0.600  0.00  0.00    +0.010 A 
ATOM      3  C   UNL A   1      -0.672  -1.010  -0.672  0.00  0.00    -0.001 A 
ATOM      4  C   UNL A   1      -0.996  -2.363  -0.805  0.00  0.00    +0.011 A 
ATOM      5  C   UNL A   1      -1.116  -3.166   0.332  0.00  0.00    +0.058 A 
ATOM      6 CL   UNL A   1      -1.519  -4.861   0.167  0.00  0.00    -0.082 Cl
ATOM      7  C   UNL A   1      -0.910  -2.617   1.601  0.00  0.00    +0.011 A 
ATOM      8  C   UNL A   1      -0.587  -1.264   1.734  0.00  0.00    -0.001 A 
ENDBRANCH   1   2
BRANCH   1   9
ATOM      9  C   UNL A   1      -0.855   1.995  -0.036  0.00  0.00    +0.090 A 
ATOM     10  C   UNL A   1      -1.678   2.912   0.621  0.00  0.00    +0.018 A 
ATOM     11  C   UNL A   1      -2.398   3.844  -0.129  0.00  0.00    +0.003 A 
ATOM     12  C   UNL A   1      -2.289   3.851  -1.520  0.00  0.00    +0.021 A 
ATOM     13  C   UNL A   1      -1.455   2.920  -2.143  0.00  0.00    +0.099 A 
ATOM     14  N   UNL A   1      -0.761   2.019  -1.395  0.00  0.00    -0.245 NA
ENDBRANCH   1   9
BRANCH   1  15
ATOM     15  O   UNL A   1       1.313   1.226   0.826  0.00  0.00    -0.344 OA
BRANCH  15  16
ATOM     16  C   UNL A   1       1.881   0.912  -0.420  0.00  0.00    +0.160 C 
BRANCH  16  17
ATOM     17  C   UNL A   1       3.136   0.078  -0.221  0.00  0.00    +0.105 C 
BRANCH  17  19
ATOM     18  C   UNL A   1       3.892  -1.631   1.172  0.00  0.00    +0.090 C 
ATOM     19  N   UNL A   1       2.792  -1.229   0.316  0.00  0.00    -0.268 NA
ATOM     20  C   UNL A   1       2.773  -2.158  -0.800  0.00  0.00    +0.090 C 
ENDBRANCH  17  19
ENDBRANCH  16  17
ENDBRANCH  15  16
ENDBRANCH   1  15
TORSDOF 6
