REMARK  10 active torsions:
REMARK  status: ('A' for Active; 'I' for Inactive)
REMARK    1  A    between atoms: C_2  and  S_4 
REMARK    2  A    between atoms: C_2  and  S_21 
REMARK    3  A    between atoms: S_4  and  C_5 
REMARK    4  A    between atoms: C_7  and  C_17 
REMARK    5  A    between atoms: C_8  and  O_9 
REMARK    6  A    between atoms: C_11  and  C_13 
REMARK    7  A    between atoms: S_21  and  C_22 
REMARK    8  A    between atoms: C_24  and  C_34 
REMARK    9  A    between atoms: C_25  and  O_26 
REMARK   10  A    between atoms: C_28  and  C_30 
ROOT
ATOM      1  C   UNL d   1       0.125  -1.610   1.315  0.00  0.00     0.039 C 
ATOM      2  C   UNL d   1       0.203  -0.416   2.254  0.00  0.00     0.058 C 
ATOM      3  C   UNL d   1       1.341  -0.645   3.229  0.00  0.00     0.039 C 
ENDROOT
BRANCH   2   4
ATOM      4  S   UNL d   1       0.489   1.148   1.333  0.00  0.00    -0.109 SA
BRANCH   4   5
ATOM      5  C   UNL d   1       1.976   0.641   0.465  0.00  0.00     0.003 A 
ATOM      6  C   UNL d   1       1.882   0.070  -0.800  0.00  0.00     0.029 A 
ATOM      7  C   UNL d   1       3.029  -0.320  -1.510  0.00  0.00    -0.016 A 
ATOM      8  C   UNL d   1       4.298  -0.111  -0.914  0.00  0.00     0.079 A 
ATOM      9  C   UNL d   1       4.405   0.483   0.368  0.00  0.00    -0.016 A 
ATOM     10  C   UNL d   1       3.228   0.855   1.037  0.00  0.00     0.029 A 
BRANCH   7  11
ATOM     11  C   UNL d   1       2.898  -0.955  -2.890  0.00  0.00    -0.021 C 
ATOM     12  C   UNL d   1       3.502  -2.348  -2.882  0.00  0.00     0.019 C 
ATOM     13  C   UNL d   1       3.622  -0.108  -3.923  0.00  0.00     0.019 C 
ATOM     14  C   UNL d   1       1.450  -1.088  -3.343  0.00  0.00     0.019 C 
ENDBRANCH   7  11
BRANCH   8  15
ATOM     15  O   UNL d   1       5.451  -0.491  -1.597  0.00  0.00    -0.360 OA
ATOM     16  HO  UNL d   1       6.302  -0.351  -1.197  1.00  0.00     0.217 HD
ENDBRANCH   8  15
BRANCH   9  17
ATOM     17  C   UNL d   1       5.764   0.717   1.020  0.00  0.00    -0.021 C 
ATOM     18  C   UNL d   1       6.492  -0.604   1.197  0.00  0.00     0.019 C 
ATOM     19  C   UNL d   1       5.655   1.365   2.394  0.00  0.00     0.019 C 
ATOM     20  C   UNL d   1       6.607   1.634   0.150  0.00  0.00     0.019 C 
ENDBRANCH   9  17
ENDBRANCH   4   5
ENDBRANCH   2   4
BRANCH   2  21
ATOM     21  S   UNL d   1      -1.341  -0.289   3.234  0.00  0.00    -0.109 SA
BRANCH  21  22
ATOM     22  C   UNL d   1      -2.482  -0.109   1.858  0.00  0.00     0.003 A 
ATOM     23  C   UNL d   1      -3.049  -1.237   1.270  0.00  0.00     0.029 A 
ATOM     24  C   UNL d   1      -3.953  -1.123   0.201  0.00  0.00    -0.016 A 
ATOM     25  C   UNL d   1      -4.289   0.172  -0.267  0.00  0.00     0.079 A 
ATOM     26  C   UNL d   1      -3.730   1.326   0.336  0.00  0.00    -0.016 A 
ATOM     27  C   UNL d   1      -2.832   1.159   1.402  0.00  0.00     0.029 A 
BRANCH  24  28
ATOM     28  C   UNL d   1      -4.548  -2.373  -0.437  0.00  0.00    -0.021 C 
ATOM     29  C   UNL d   1      -4.169  -2.438  -1.906  0.00  0.00     0.019 C 
ATOM     30  C   UNL d   1      -6.062  -2.349  -0.318  0.00  0.00     0.019 C 
ATOM     31  C   UNL d   1      -4.059  -3.659   0.218  0.00  0.00     0.019 C 
ENDBRANCH  24  28
BRANCH  25  32
ATOM     32  O   UNL d   1      -5.178   0.312  -1.330  0.00  0.00    -0.360 OA
ATOM     33  HO  UNL d   1      -5.404   1.180  -1.644  1.00  0.00     0.217 HD
ENDBRANCH  25  32
BRANCH  26  34
ATOM     34  C   UNL d   1      -4.084   2.725  -0.156  0.00  0.00    -0.021 C 
ATOM     35  C   UNL d   1      -3.684   2.881  -1.613  0.00  0.00     0.019 C 
ATOM     36  C   UNL d   1      -5.578   2.963  -0.025  0.00  0.00     0.019 C 
ATOM     37  C   UNL d   1      -3.377   3.823   0.629  0.00  0.00     0.019 C 
ENDBRANCH  26  34
ENDBRANCH  21  22
ENDBRANCH   2  21
TORSDOF 10
