REMARK  9 active torsions:
REMARK  status: ('A' for Active; 'I' for Inactive)
REMARK    1  A    between atoms: C_2  and  C_3 
REMARK    2  A    between atoms: C_3  and  C_4 
REMARK    3  A    between atoms: N_5  and  C_4 
REMARK    4  A    between atoms: C_8  and  O_14 
REMARK    5  A    between atoms: O_14  and  C_15 
REMARK    6  A    between atoms: C_15  and  C_17 
REMARK    7  A    between atoms: C_17  and  C_18 
REMARK    8  A    between atoms: C_17  and  C_21 
REMARK    9  A    between atoms: C_18  and  O_19 
ROOT
ATOM      1  N   UNL d   1       2.970  -0.632   1.158  0.00  0.00    -0.057 N 
ATOM      2  C   UNL d   1       2.526  -1.691   0.239  0.00  0.00     0.224 C 
ATOM      3  C   UNL d   1       1.004  -1.989   0.389  0.00  0.00     0.069 C 
ATOM      4  C   UNL d   1       0.216  -0.779   0.944  0.00  0.00     0.136 C 
ATOM      5  C   UNL d   1       0.840   0.615   0.698  0.00  0.00     0.069 C 
ATOM      6  C   UNL d   1       2.384   0.551   0.502  0.00  0.00     0.224 C 
ATOM      7  C   UNL d   1       2.701   0.362  -0.999  0.00  0.00     0.184 A 
ATOM      8  C   UNL d   1       2.794  -1.122  -1.174  0.00  0.00     0.184 A 
ATOM      9  O   UNL d   1       1.710  -0.376  -1.674  0.00  0.00    -0.371 OA
ATOM     10  C   UNL d   1       2.550  -0.845   2.549  0.00  0.00     0.273 C 
ENDROOT
BRANCH   4  11
ATOM     11  O   UNL d   1      -1.184  -0.834   0.675  0.00  0.00    -0.315 OA
BRANCH  11  12
ATOM     12  C   UNL d   1      -1.748  -0.722  -0.599  0.00  0.00     0.270 C 
ATOM     13  O   UNL d   1      -1.024  -0.563  -1.619  0.00  0.00    -0.264 OA
BRANCH  12  14
ATOM     14  C   UNL d   1      -3.239  -0.767  -0.735  0.00  0.00     0.142 C 
BRANCH  14  15
ATOM     15  C   UNL d   1      -3.689  -1.782  -1.779  0.00  0.00     0.183 C 
BRANCH  15  16
ATOM     16  O   UNL d   1      -3.399  -3.075  -1.343  0.00  0.00    -0.400 OA
ATOM     17  HO  UNL d   1      -3.680  -3.709  -1.993  1.00  0.00     0.209 HD
ENDBRANCH  15  16
ENDBRANCH  14  15
BRANCH  14  18
ATOM     18  C   UNL d   1      -3.805   0.593  -1.010  0.00  0.00    -0.043 A 
ATOM     19  C   UNL d   1      -3.560   1.255  -2.224  0.00  0.00     0.008 A 
ATOM     20  C   UNL d   1      -4.090   2.528  -2.449  0.00  0.00     0.001 A 
ATOM     21  C   UNL d   1      -4.865   3.147  -1.464  0.00  0.00     0.000 A 
ATOM     22  C   UNL d   1      -5.109   2.493  -0.253  0.00  0.00     0.001 A 
ATOM     23  C   UNL d   1      -4.579   1.219  -0.026  0.00  0.00     0.008 A 
ENDBRANCH  14  18
ENDBRANCH  12  14
ENDBRANCH  11  12
ENDBRANCH   4  11
BRANCH   1  24
ATOM     24  C   UNL d   1       4.447  -0.587   1.152  0.00  0.00     0.238 C 
BRANCH  24  25
ATOM     25  C   UNL d   1       5.022   0.695   1.760  0.00  0.00     0.028 C 
BRANCH  25  26
ATOM     26  C   UNL d   1       5.288   0.509   3.240  0.00  0.00    -0.003 C 
ATOM     27  C   UNL d   1       5.838   1.795   3.819  0.00  0.00     0.005 C 
ENDBRANCH  25  26
ENDBRANCH  24  25
ENDBRANCH   1  24
TORSDOF 9
