REMARK  3 active torsions:
REMARK  status: ('A' for Active; 'I' for Inactive)
REMARK    1  A    between atoms: C_2  and  C_4 
REMARK    2  A    between atoms: N_6  and  C_7 
REMARK    3  A    between atoms: C_16  and  N_17 
ROOT
ATOM      1  C   UNL d   1      -2.399  -2.425  -0.213  0.00  0.00     0.107 A 
ATOM      2  C   UNL d   1      -2.496  -1.150   0.353  0.00  0.00     0.120 A 
ATOM      3  N   UNL d   1      -1.459  -0.265   0.325  0.00  0.00    -0.320 N 
ATOM      4  C   UNL d   1      -0.263  -0.619  -0.257  0.00  0.00     0.055 A 
ATOM      5  C   UNL d   1       0.838   0.254  -0.255  0.00  0.00     0.063 A 
ATOM      6  C   UNL d   1       2.065  -0.100  -0.835  0.00  0.00     0.071 A 
ATOM      7  C   UNL d   1       2.184  -1.366  -1.444  0.00  0.00     0.143 A 
ATOM      8  F   UNL d   1       3.328  -1.747  -2.064  0.00  0.00    -0.204 F 
ATOM      9  C   UNL d   1       1.104  -2.249  -1.441  0.00  0.00     0.062 A 
ATOM     10  C   UNL d   1      -0.115  -1.896  -0.848  0.00  0.00     0.045 A 
ATOM     11  C   UNL d   1      -1.190  -2.798  -0.828  0.00  0.00     0.202 A 
ATOM     12  O   UNL d   1      -1.063  -3.937  -1.357  0.00  0.00    -0.286 OA
ENDROOT
BRANCH   6  13
ATOM     13  N   UNL d   1       3.162   0.838  -0.815  0.00  0.00    -0.375 N 
ATOM     14  C   UNL d   1       4.550   0.376  -0.833  0.00  0.00     0.150 C 
ATOM     15  C   UNL d   1       5.407   1.365  -1.619  0.00  0.00     0.252 C 
ATOM     16  N   UNL d   1       5.251   2.708  -1.066  0.00  0.00    -0.072 N 
ATOM     17  C   UNL d   1       3.867   3.133  -1.269  0.00  0.00     0.252 C 
ATOM     18  HN2 UNL d   1       5.540   2.767  -0.090  1.00  0.00     0.277 HD
ATOM     19  HN1 UNL d   1       5.924   3.371  -1.451  1.00  0.00     0.277 HD
ATOM     20  C   UNL d   1       2.926   2.239  -0.465  0.00  0.00     0.150 C 
ENDBRANCH   6  13
BRANCH   3  21
ATOM     21  C   UNL d   1      -1.679   1.030   0.923  0.00  0.00     0.039 A 
ATOM     22  C   UNL d   1      -2.264   1.130   2.197  0.00  0.00     0.033 A 
ATOM     23  C   UNL d   1      -2.502   2.382   2.770  0.00  0.00     0.044 A 
ATOM     24  C   UNL d   1      -2.165   3.546   2.074  0.00  0.00     0.116 A 
ATOM     25  F   UNL d   1      -2.395   4.759   2.631  0.00  0.00    -0.206 F 
ATOM     26  C   UNL d   1      -1.595   3.458   0.802  0.00  0.00     0.044 A 
ATOM     27  C   UNL d   1      -1.356   2.207   0.227  0.00  0.00     0.033 A 
ENDBRANCH   3  21
BRANCH   1  28
ATOM     28  C   UNL d   1      -3.574  -3.326  -0.144  0.00  0.00     0.214 C 
ATOM     29  O   UNL d   1      -3.532  -4.604  -0.690  0.00  0.00    -0.644 OA
ATOM     30  O   UNL d   1      -4.635  -2.940   0.417  0.00  0.00    -0.644 OA
ENDBRANCH   1  28
TORSDOF 3
