REMARK  9 active torsions:
REMARK  status: ('A' for Active; 'I' for Inactive)
REMARK    1  A    between atoms: C_1  and  C_2 
REMARK    2  A    between atoms: C_1  and  N_13 
REMARK    3  A    between atoms: C_2  and  O_3 
REMARK    4  A    between atoms: C_5  and  C_6 
REMARK    5  A    between atoms: C_5  and  N_13 
REMARK    6  A    between atoms: C_6  and  O_7 
REMARK    7  A    between atoms: C_9  and  C_10 
REMARK    8  A    between atoms: C_9  and  N_13 
REMARK    9  A    between atoms: C_10  and  O_11 
ROOT
ATOM      1  N   UNL d   1      -0.224  -0.275   0.276  0.00  0.00     0.094 N 
ENDROOT
BRANCH   1   2
ATOM      2  C   UNL d   1      -1.164   0.841   0.464  0.00  0.00     0.298 C 
BRANCH   2   3
ATOM      3  C   UNL d   1      -1.387   1.692  -0.790  0.00  0.00     0.194 C 
BRANCH   3   4
ATOM      4  O   UNL d   1      -0.371   2.639  -0.917  0.00  0.00    -0.399 OA
ATOM      5  HO  UNL d   1      -0.509   3.167  -1.694  1.00  0.00     0.209 HD
ENDBRANCH   3   4
ENDBRANCH   2   3
ENDBRANCH   1   2
BRANCH   1   6
ATOM      6  C   UNL d   1       1.101   0.229  -0.061  0.00  0.00     0.298 C 
BRANCH   6   7
ATOM      7  C   UNL d   1       1.910   0.439   1.205  0.00  0.00     0.194 C 
BRANCH   7   8
ATOM      8  O   UNL d   1       3.172   0.927   0.873  0.00  0.00    -0.399 OA
ATOM      9  HO  UNL d   1       3.679   1.059   1.666  1.00  0.00     0.209 HD
ENDBRANCH   7   8
ENDBRANCH   6   7
ENDBRANCH   1   6
BRANCH   1  10
ATOM     10  C   UNL d   1      -0.673  -1.132  -0.817  0.00  0.00     0.298 C 
BRANCH  10  11
ATOM     11  C   UNL d   1      -1.559  -2.244  -0.283  0.00  0.00     0.194 C 
BRANCH  11  12
ATOM     12  O   UNL d   1      -0.806  -3.116   0.503  0.00  0.00    -0.399 OA
ATOM     13  HO  UNL d   1      -1.360  -3.812   0.836  1.00  0.00     0.209 HD
ENDBRANCH  11  12
ENDBRANCH  10  11
ENDBRANCH   1  10
TORSDOF 9
