REMARK  2 active torsions:
REMARK  status: ('A' for Active; 'I' for Inactive)
REMARK    1  A    between atoms: C_10  and  O_11 
REMARK    2  A    between atoms: C_19  and  O_21 
ROOT
ATOM      1  C   UNL d   1      -2.265   1.262   1.558  0.00  0.00     0.018 C 
ATOM      2  C   UNL d   1      -2.612  -0.021   0.784  0.00  0.00    -0.014 C 
ATOM      3  C   UNL d   1      -1.974  -1.237   1.447  0.00  0.00     0.012 C 
ATOM      4  C   UNL d   1      -0.441  -1.111   1.417  0.00  0.00     0.007 C 
ATOM      5  C   UNL d   1       0.106  -0.840  -0.007  0.00  0.00     0.003 C 
ATOM      6  C   UNL d   1      -0.629   0.294  -0.750  0.00  0.00    -0.001 C 
ATOM      7  C   UNL d   1      -2.128   0.030  -0.646  0.00  0.00     0.001 C 
ATOM      8  C   UNL d   1      -3.087   0.953  -1.367  0.00  0.00     0.008 C 
ATOM      9  C   UNL d   1      -4.422   0.707  -0.661  0.00  0.00     0.033 C 
ATOM     10  C   UNL d   1      -4.114  -0.146   0.574  0.00  0.00     0.126 C 
ATOM     11  C   UNL d   1      -0.192   0.233  -2.206  0.00  0.00     0.033 C 
ATOM     12  C   UNL d   1       1.292   0.412  -2.305  0.00  0.00    -0.023 C 
ATOM     13  C   UNL d   1       2.136  -0.052  -1.370  0.00  0.00    -0.072 C 
ATOM     14  C   UNL d   1       1.650  -0.698  -0.068  0.00  0.00    -0.017 C 
ATOM     15  C   UNL d   1       2.180   0.122   1.131  0.00  0.00     0.016 C 
ATOM     16  C   UNL d   1       3.571   0.757   0.936  0.00  0.00     0.033 C 
ATOM     17  C   UNL d   1       4.354   0.124  -0.212  0.00  0.00     0.122 C 
ATOM     18  C   UNL d   1       3.594   0.292  -1.527  0.00  0.00     0.066 C 
ATOM     19  C   UNL d   1       2.224  -2.105   0.018  0.00  0.00     0.020 C 
ENDROOT
BRANCH  10  20
ATOM     20  O   UNL d   1      -4.848   0.297   1.678  0.00  0.00    -0.395 OA
ATOM     21  HO  UNL d   1      -5.786   0.219   1.546  1.00  0.00     0.210 HD
ENDBRANCH  10  20
BRANCH  17  22
ATOM     22  O   UNL d   1       5.606   0.727  -0.316  0.00  0.00    -0.395 OA
ATOM     23  HO  UNL d   1       6.093   0.333  -1.031  1.00  0.00     0.210 HD
ENDBRANCH  17  22
TORSDOF 2
