REMARK  Name = fda_3617
REMARK  1 active torsions:
REMARK  status: ('A' for Active; 'I' for Inactive)
REMARK    1  A    between atoms: C_10  and  C_11
REMARK                            x       y       z     vdW  Elec       q    Type
REMARK                         _______ _______ _______ _____ _____    ______ ____
ROOT
ATOM      1  C   UNL A   1      -2.016   1.189  -1.410  0.00  0.00    +0.003 C 
ATOM      2  C   UNL A   1      -2.613   0.268  -0.334  0.00  0.00    +0.037 C 
ATOM      3  C   UNL A   1      -2.245   0.819   1.060  0.00  0.00    +0.003 C 
ATOM      4  C   UNL A   1      -0.870   0.335   1.581  0.00  0.00    +0.000 C 
ATOM      5  C   UNL A   1       0.053  -0.119   0.433  0.00  0.00    +0.004 C 
ATOM      6  C   UNL A   1      -0.547  -1.296  -0.358  0.00  0.00    +0.001 C 
ATOM      7  C   UNL A   1      -2.071  -1.139  -0.484  0.00  0.00    +0.003 C 
ATOM      8  C   UNL A   1      -2.831  -1.801  -1.613  0.00  0.00    +0.004 C 
ATOM      9  C   UNL A   1      -4.181  -1.077  -1.625  0.00  0.00    +0.043 C 
ATOM     10  C   UNL A   1      -4.118   0.026  -0.560  0.00  0.00    +0.180 C 
ATOM     11  O   UNL A   1      -4.716  -0.454   0.609  0.00  0.00    -0.212 OA
ATOM     12  C   UNL A   1       0.186  -1.408  -1.688  0.00  0.00    +0.004 C 
ATOM     13  C   UNL A   1       1.648  -1.766  -1.425  0.00  0.00    +0.022 C 
ATOM     14  C   UNL A   1       2.288  -0.805  -0.461  0.00  0.00    -0.041 C 
ATOM     15  C   UNL A   1       3.584  -0.509  -0.648  0.00  0.00    +0.031 C 
ATOM     16  C   UNL A   1       4.244   0.382   0.300  0.00  0.00    +0.172 A 
ATOM     17  C   UNL A   1       3.576   1.008   1.300  0.00  0.00    +0.038 A 
ATOM     18  C   UNL A   1       4.509   1.793   1.941  0.00  0.00    +0.139 A 
ATOM     19  N   UNL A   1       5.695   1.577   1.322  0.00  0.00    -0.076 NA
ATOM     20  O   UNL A   1       5.502   0.733   0.345  0.00  0.00    -0.354 OA
ATOM     21  C   UNL A   1       2.093   0.933   1.449  0.00  0.00    +0.035 C 
ATOM     22  C   UNL A   1       1.526  -0.366   0.811  0.00  0.00    +0.019 C 
ATOM     23  C   UNL A   1       1.619  -1.484   1.843  0.00  0.00    +0.004 C 
ENDROOT
BRANCH  10  24
ATOM     24  C   UNL A   1      -4.855   1.219  -1.010  0.00  0.00    -0.049 C 
ATOM     25  C   UNL A   1      -5.459   2.196  -1.377  0.00  0.00    -0.012 C 
ENDBRANCH  10  24
TORSDOF 1
