REMARK  15 active torsions:
REMARK  status: ('A' for Active; 'I' for Inactive)
REMARK    1  A    between atoms: C_2  and  C_3 
REMARK    2  A    between atoms: C_3  and  C_4 
REMARK    3  A    between atoms: C_4  and  C_5 
REMARK    4  A    between atoms: C_5  and  C_6 
REMARK    5  A    between atoms: C_6  and  C_7 
REMARK    6  A    between atoms: C_6  and  O_26 
REMARK    7  A    between atoms: C_9  and  C_8 
REMARK    8  A    between atoms: C_10  and  O_24 
REMARK    9  A    between atoms: C_12  and  O_22 
REMARK   10  A    between atoms: C_13  and  C_14 
REMARK   11  A    between atoms: C_14  and  C_15 
REMARK   12  A    between atoms: C_16  and  C_17 
REMARK   13  A    between atoms: C_17  and  C_18 
REMARK   14  A    between atoms: C_18  and  C_19 
REMARK   15  A    between atoms: C_19  and  C_20 
ROOT
ATOM      1  C   UNL d   1      -0.894   0.054   2.453  0.00  0.00     0.043 C 
ATOM      2  C   UNL d   1      -0.082   0.730   3.560  0.00  0.00     0.128 C 
ATOM      3  C   UNL d   1       1.098  -0.190   3.850  0.00  0.00     0.064 C 
ATOM      4  C   UNL d   1       0.940  -1.414   2.963  0.00  0.00     0.125 C 
ATOM      5  C   UNL d   1       0.001  -1.016   1.827  0.00  0.00     0.028 C 
ENDROOT
BRANCH   1   6
ATOM      6  C   UNL d   1      -1.571   0.995   1.495  0.00  0.00    -0.021 C 
ATOM      7  C   UNL d   1      -2.475   0.547   0.625  0.00  0.00     0.001 C 
BRANCH   7   8
ATOM      8  C   UNL d   1      -3.139   1.482  -0.334  0.00  0.00     0.140 C 
BRANCH   8   9
ATOM      9  C   UNL d   1      -4.257   0.779  -1.097  0.00  0.00     0.036 C 
BRANCH   9  10
ATOM     10  C   UNL d   1      -3.725  -0.318  -2.011  0.00  0.00     0.003 C 
BRANCH  10  11
ATOM     11  C   UNL d   1      -4.873  -1.035  -2.704  0.00  0.00    -0.000 C 
BRANCH  11  12
ATOM     12  C   UNL d   1      -5.612  -1.955  -1.743  0.00  0.00    -0.005 C 
ATOM     13  C   UNL d   1      -4.783  -3.191  -1.450  0.00  0.00     0.005 C 
ENDBRANCH  11  12
ENDBRANCH  10  11
ENDBRANCH   9  10
ENDBRANCH   8   9
BRANCH   8  14
ATOM     14  O   UNL d   1      -2.203   2.018  -1.222  0.00  0.00    -0.392 OA
ATOM     15  HO  UNL d   1      -1.506   2.456  -0.747  1.00  0.00     0.210 HD
ENDBRANCH   8  14
ENDBRANCH   7   8
ENDBRANCH   1   6
BRANCH   5  16
ATOM     16  C   UNL d   1       0.711  -0.595   0.522  0.00  0.00     0.034 C 
BRANCH  16  17
ATOM     17  C   UNL d   1       1.621   0.588   0.686  0.00  0.00    -0.030 C 
ATOM     18  C   UNL d   1       2.274   1.143  -0.339  0.00  0.00    -0.031 C 
BRANCH  18  19
ATOM     19  C   UNL d   1       2.151   0.637  -1.743  0.00  0.00     0.027 C 
BRANCH  19  20
ATOM     20  C   UNL d   1       3.036   1.447  -2.679  0.00  0.00     0.014 C 
BRANCH  20  21
ATOM     21  C   UNL d   1       4.508   1.102  -2.494  0.00  0.00     0.113 C 
BRANCH  21  22
ATOM     22  C   UNL d   1       4.820  -0.230  -3.088  0.00  0.00     0.172 C 
ATOM     23  O   UNL d   1       5.115  -0.322  -4.308  0.00  0.00    -0.648 OA
ATOM     24  O   UNL d   1       4.753  -1.373  -2.303  0.00  0.00    -0.648 OA
ENDBRANCH  21  22
ENDBRANCH  20  21
ENDBRANCH  19  20
ENDBRANCH  18  19
ENDBRANCH  16  17
ENDBRANCH   5  16
BRANCH   2  25
ATOM     25  O   UNL d   1       0.402   1.978   3.159  0.00  0.00    -0.395 OA
ATOM     26  HO  UNL d   1       0.906   2.398   3.846  1.00  0.00     0.210 HD
ENDBRANCH   2  25
BRANCH   4  27
ATOM     27  O   UNL d   1       2.182  -1.861   2.507  0.00  0.00    -0.395 OA
ATOM     28  HO  UNL d   1       2.084  -2.626   1.952  1.00  0.00     0.210 HD
ENDBRANCH   4  27
TORSDOF 15
