REMARK  3 active torsions:
REMARK  status: ('A' for Active; 'I' for Inactive)
REMARK    1  A    between atoms: C_2  and  C_3 
REMARK    2  A    between atoms: C_2  and  C_5 
REMARK       I    between atoms: C_5  and  N_7 
REMARK    3  A    between atoms: C_11  and  C_12 
ROOT
ATOM      1  C   UNL d   1       0.738  -0.684  -0.157  0.00  0.00     0.225 C 
ATOM      2  O   UNL d   1       0.303  -1.852  -0.358  0.00  0.00    -0.273 OA
ATOM      3  N   UNL d   1      -0.121   0.310   0.419  0.00  0.00    -0.337 N 
ATOM      4  C   UNL d   1       0.335   1.638   0.781  0.00  0.00     0.127 C 
ATOM      5  C   UNL d   1      -0.864   2.331   1.399  0.00  0.00     0.022 C 
ATOM      6  C   UNL d   1      -1.904   1.248   1.658  0.00  0.00     0.038 C 
ATOM      7  C   UNL d   1      -1.487   0.044   0.831  0.00  0.00     0.188 C 
ENDROOT
BRANCH   1   8
ATOM      8  C   UNL d   1       2.153  -0.345  -0.522  0.00  0.00     0.084 C 
ATOM      9  C   UNL d   1       2.368  -0.524  -2.012  0.00  0.00     0.020 C 
BRANCH   8  10
ATOM     10  C   UNL d   1       3.141  -1.208   0.247  0.00  0.00     0.099 C 
ATOM     11  S   UNL d   1       3.240  -0.668   1.980  0.00  0.00    -0.097 SA
ENDBRANCH   8  10
ENDBRANCH   1   8
BRANCH   7  12
ATOM     12  C   UNL d   1      -2.378  -0.089  -0.362  0.00  0.00     0.196 C 
ATOM     13  O   UNL d   1      -2.376   0.880  -1.359  0.00  0.00    -0.646 OA
ATOM     14  O   UNL d   1      -3.146  -1.081  -0.459  0.00  0.00    -0.646 OA
ENDBRANCH   7  12
TORSDOF 3
