REMARK  8 active torsions:
REMARK  status: ('A' for Active; 'I' for Inactive)
REMARK    1  A    between atoms: C_2  and  C_3 
REMARK    2  A    between atoms: C_3  and  C_4 
REMARK    3  A    between atoms: C_13  and  C_18 
REMARK    4  A    between atoms: C_20  and  S_27 
REMARK    5  A    between atoms: C_23  and  O_24 
REMARK    6  A    between atoms: O_24  and  C_25 
REMARK    7  A    between atoms: S_27  and  N_30 
REMARK    8  A    between atoms: N_33  and  C_34 
ROOT
ATOM      1  C   UNL d   1      -0.138   1.615   0.135  0.00  0.00     0.044 A 
ATOM      2  C   UNL d   1       0.653   0.993   1.113  0.00  0.00     0.042 A 
ATOM      3  C   UNL d   1       1.702   1.669   1.737  0.00  0.00     0.075 A 
ATOM      4  C   UNL d   1       1.971   2.993   1.390  0.00  0.00     0.027 A 
ATOM      5  C   UNL d   1       1.194   3.634   0.425  0.00  0.00     0.039 A 
ATOM      6  C   UNL d   1       0.136   2.960  -0.211  0.00  0.00     0.082 A 
ENDROOT
BRANCH   1   7
ATOM      7  C   UNL d   1      -1.218   0.819  -0.498  0.00  0.00     0.136 A 
ATOM      8  N   UNL d   1      -1.454  -0.460  -0.075  0.00  0.00    -0.276 N 
ATOM      9  N   UNL d   1      -2.418  -1.162  -0.664  0.00  0.00    -0.235 N 
ATOM     10  HN  UNL d   1      -0.900  -0.869   0.677  1.00  0.00     0.189 HD
ATOM     11  C   UNL d   1      -3.172  -0.691  -1.654  0.00  0.00     0.148 A 
ATOM     12  C   UNL d   1      -2.824  -2.420  -0.428  0.00  0.00     0.104 A 
ATOM     13  C   UNL d   1      -4.051  -1.689  -2.026  0.00  0.00     0.041 A 
ATOM     14  C   UNL d   1      -2.964   0.605  -2.111  0.00  0.00     0.277 A 
ATOM     15  N   UNL d   1      -3.833  -2.786  -1.258  0.00  0.00    -0.346 N 
ATOM     16  C   UNL d   1      -5.080  -1.617  -3.099  0.00  0.00     0.071 C 
ATOM     17  HN  UNL d   1      -4.318  -3.683  -1.295  1.00  0.00     0.167 HD
ATOM     18  N   UNL d   1      -1.980   1.336  -1.515  0.00  0.00    -0.306 N 
ATOM     19  O   UNL d   1      -3.651   1.096  -3.044  0.00  0.00    -0.265 OA
ATOM     20  HN  UNL d   1      -1.806   2.290  -1.832  1.00  0.00     0.170 HD
BRANCH  12  21
ATOM     21  C   UNL d   1      -2.220  -3.326   0.594  0.00  0.00     0.078 C 
BRANCH  21  22
ATOM     22  C   UNL d   1      -0.882  -3.868   0.117  0.00  0.00     0.003 C 
ATOM     23  C   UNL d   1      -1.088  -4.947  -0.930  0.00  0.00     0.005 C 
ENDBRANCH  21  22
ENDBRANCH  12  21
ENDBRANCH   1   7
BRANCH   6  24
ATOM     24  O   UNL d   1      -0.636   3.615  -1.181  0.00  0.00    -0.351 OA
BRANCH  24  25
ATOM     25  C   UNL d   1      -0.458   4.982  -1.537  0.00  0.00     0.171 C 
ATOM     26  C   UNL d   1      -1.101   5.880  -0.497  0.00  0.00     0.034 C 
ENDBRANCH  24  25
ENDBRANCH   6  24
BRANCH   3  27
ATOM     27  S   UNL d   1       2.689   0.840   2.937  0.00  0.00     0.243 S 
ATOM     28  O   UNL d   1       1.845   0.537   4.144  0.00  0.00    -0.206 OA
ATOM     29  O   UNL d   1       3.820   1.737   3.355  0.00  0.00    -0.206 OA
BRANCH  27  30
ATOM     30  N   UNL d   1       3.353  -0.633   2.296  0.00  0.00    -0.203 NA
ATOM     31  C   UNL d   1       2.247  -1.556   2.053  0.00  0.00     0.138 C 
ATOM     32  C   UNL d   1       2.771  -2.854   1.432  0.00  0.00     0.287 C 
ATOM     33  N   UNL d   1       3.507  -2.610   0.183  0.00  0.00     0.090 N 
ATOM     34  C   UNL d   1       4.542  -1.586   0.375  0.00  0.00     0.287 C 
ATOM     35  C   UNL d   1       3.980  -0.314   1.016  0.00  0.00     0.138 C 
BRANCH  33  36
ATOM     36  C   UNL d   1       2.583  -2.181  -0.862  0.00  0.00     0.268 C 
ATOM     37  C   UNL d   1       2.175  -3.370  -1.709  0.00  0.00     0.037 C 
ENDBRANCH  33  36
ENDBRANCH  27  30
ENDBRANCH   3  27
TORSDOF 8
