REMARK  6 active torsions:
REMARK  status: ('A' for Active; 'I' for Inactive)
REMARK    1  A    between atoms: C_3  and  C_4 
REMARK    2  A    between atoms: C_3  and  C_30 
REMARK    3  A    between atoms: C_4  and  C_5 
REMARK    4  A    between atoms: C_5  and  C_6 
REMARK    5  A    between atoms: C_6  and  C_8 
REMARK    6  A    between atoms: C_23  and  O_26 
ROOT
ATOM      1  C   UNL d   1      -2.205   0.046   0.391  0.00  0.00    -0.002 C 
ATOM      2  C   UNL d   1      -2.231  -0.252   1.907  0.00  0.00     0.006 C 
ATOM      3  C   UNL d   1      -0.789  -0.259   2.410  0.00  0.00     0.010 C 
ATOM      4  C   UNL d   1       0.023  -0.303   1.137  0.00  0.00     0.023 C 
ATOM      5  C   UNL d   1      -0.761   0.496   0.120  0.00  0.00    -0.033 C 
ATOM      6  C   UNL d   1      -0.164   0.208  -1.265  0.00  0.00     0.011 C 
ATOM      7  C   UNL d   1       1.312   0.646  -1.327  0.00  0.00     0.010 C 
ATOM      8  C   UNL d   1       2.176   0.033  -0.198  0.00  0.00     0.023 C 
ATOM      9  C   UNL d   1       1.477   0.068   1.156  0.00  0.00    -0.074 C 
ATOM     10  C   UNL d   1       2.160   0.158   2.310  0.00  0.00    -0.023 C 
ATOM     11  C   UNL d   1       3.630   0.462   2.360  0.00  0.00     0.033 C 
ATOM     12  C   UNL d   1       4.337   0.012   1.082  0.00  0.00     0.004 C 
ATOM     13  C   UNL d   1       3.627   0.565  -0.180  0.00  0.00    -0.032 C 
ATOM     14  C   UNL d   1       4.336   0.084  -1.463  0.00  0.00     0.012 C 
ATOM     15  C   UNL d   1       5.835  -0.206  -1.309  0.00  0.00     0.033 C 
ATOM     16  C   UNL d   1       6.447   0.660  -0.218  0.00  0.00     0.122 C 
ATOM     17  C   UNL d   1       5.843   0.324   1.159  0.00  0.00     0.015 C 
ATOM     18  C   UNL d   1       6.551  -0.852   1.818  0.00  0.00     0.013 C 
ATOM     19  C   UNL d   1       3.632   2.097  -0.167  0.00  0.00     0.016 C 
ATOM     20  C   UNL d   1      -0.693   2.002   0.395  0.00  0.00     0.016 C 
ENDROOT
BRANCH   1  21
ATOM     21  C   UNL d   1      -2.660  -1.188  -0.424  0.00  0.00    -0.014 C 
ATOM     22  C   UNL d   1      -2.897  -0.839  -1.884  0.00  0.00     0.010 C 
BRANCH  21  23
ATOM     23  C   UNL d   1      -3.899  -1.897   0.145  0.00  0.00     0.009 C 
BRANCH  23  24
ATOM     24  C   UNL d   1      -5.071  -0.963   0.462  0.00  0.00     0.034 C 
BRANCH  24  25
ATOM     25  C   UNL d   1      -5.875  -0.591  -0.753  0.00  0.00    -0.081 C 
ATOM     26  C   UNL d   1      -6.625  -1.490  -1.416  0.00  0.00    -0.028 C 
ATOM     27  C   UNL d   1      -6.701  -2.935  -1.040  0.00  0.00     0.036 C 
BRANCH  25  28
ATOM     28  C   UNL d   1      -5.903   0.859  -1.149  0.00  0.00     0.006 C 
ATOM     29  C   UNL d   1      -7.280   1.461  -0.934  0.00  0.00     0.014 C 
ATOM     30  C   UNL d   1      -5.470   1.058  -2.591  0.00  0.00     0.014 C 
ENDBRANCH  25  28
ENDBRANCH  24  25
ENDBRANCH  23  24
ENDBRANCH  21  23
ENDBRANCH   1  21
BRANCH  16  31
ATOM     31  O   UNL d   1       7.838   0.538  -0.217  0.00  0.00    -0.395 OA
ATOM     32  HO  UNL d   1       8.220   1.079   0.464  1.00  0.00     0.210 HD
ENDBRANCH  16  31
TORSDOF 6
