REMARK  1 active torsions:
REMARK  status: ('A' for Active; 'I' for Inactive)
REMARK    1  A    between atoms: C_18  and  O_20 
ROOT
ATOM      1  C   UNL d   1      -2.698   0.748   1.656  0.00  0.00     0.024 C 
ATOM      2  C   UNL d   1      -2.749  -0.115   0.398  0.00  0.00     0.021 C 
ATOM      3  C   UNL d   1      -2.216  -1.519   0.673  0.00  0.00     0.018 C 
ATOM      4  C   UNL d   1      -0.706  -1.454   0.972  0.00  0.00     0.007 C 
ATOM      5  C   UNL d   1       0.090  -0.825  -0.202  0.00  0.00     0.003 C 
ATOM      6  C   UNL d   1      -0.446   0.570  -0.597  0.00  0.00    -0.001 C 
ATOM      7  C   UNL d   1      -1.959   0.460  -0.755  0.00  0.00     0.006 C 
ATOM      8  C   UNL d   1      -2.806   1.482  -1.482  0.00  0.00     0.013 C 
ATOM      9  C   UNL d   1      -4.220   0.915  -1.328  0.00  0.00     0.079 C 
ATOM     10  C   UNL d   1      -4.116  -0.041  -0.177  0.00  0.00     0.135 C 
ATOM     11  O   UNL d   1      -5.072  -0.659   0.264  0.00  0.00    -0.297 OA
ATOM     12  C   UNL d   1      -0.049   1.598   0.456  0.00  0.00     0.033 C 
ATOM     13  C   UNL d   1       1.436   1.596   0.655  0.00  0.00    -0.023 C 
ATOM     14  C   UNL d   1       2.184   0.489   0.524  0.00  0.00    -0.072 C 
ATOM     15  C   UNL d   1       1.636  -0.826  -0.025  0.00  0.00    -0.017 C 
ATOM     16  C   UNL d   1       2.264  -1.040  -1.411  0.00  0.00     0.016 C 
ATOM     17  C   UNL d   1       3.797  -0.932  -1.381  0.00  0.00     0.033 C 
ATOM     18  C   UNL d   1       4.240   0.420  -0.820  0.00  0.00     0.122 C 
ATOM     19  C   UNL d   1       3.674   0.639   0.581  0.00  0.00     0.066 C 
ATOM     20  C   UNL d   1       2.082  -1.978   0.878  0.00  0.00     0.020 C 
ENDROOT
BRANCH  18  21
ATOM     21  O   UNL d   1       5.632   0.472  -0.773  0.00  0.00    -0.395 OA
ATOM     22  HO  UNL d   1       5.908   1.312  -0.425  1.00  0.00     0.210 HD
ENDBRANCH  18  21
TORSDOF 1
