REMARK  17 active torsions:
REMARK  status: ('A' for Active; 'I' for Inactive)
REMARK    1  A    between atoms: C_1  and  C_2 
REMARK    2  A    between atoms: C_2  and  C_3 
REMARK    3  A    between atoms: C_22  and  C_23 
REMARK    4  A    between atoms: C_23  and  C_24 
REMARK    5  A    between atoms: C_31  and  C_89 
REMARK    6  A    between atoms: C_36  and  C_37 
REMARK    7  A    between atoms: C_37  and  C_38 
REMARK    8  A    between atoms: C_50  and  C_51 
REMARK    9  A    between atoms: C_58  and  C_57 
REMARK   10  A    between atoms: C_58  and  O_59 
REMARK   11  A    between atoms: C_58  and  C_61 
REMARK   12  A    between atoms: C_61  and  C_63 
REMARK   13  A    between atoms: C_63  and  C_64 
REMARK   14  A    between atoms: C_65  and  C_66 
REMARK   15  A    between atoms: C_72  and  C_73 
REMARK   16  A    between atoms: C_80  and  C_81 
REMARK   17  A    between atoms: C_81  and  C_82 
ROOT
ATOM      1  C   UNL d   1      -0.223   4.640   0.325  0.00  0.00     0.179 C 
ATOM      2  N   UNL d   1       0.876   4.285   1.225  0.00  0.00    -0.341 N 
ATOM      3  C   UNL d   1       0.552   4.087   2.633  0.00  0.00     0.153 C 
ATOM      4  C   UNL d   1       2.184   3.936   0.726  0.00  0.00     0.242 C 
ATOM      5  O   UNL d   1       2.630   4.484  -0.323  0.00  0.00    -0.271 OA
ATOM      6  C   UNL d   1       3.025   2.919   1.439  0.00  0.00     0.172 C 
ATOM      7  C   UNL d   1       2.995   1.617   0.662  0.00  0.00     0.042 C 
ATOM      8  N   UNL d   1       4.396   3.394   1.557  0.00  0.00    -0.346 N 
ATOM      9  HN  UNL d   1       5.081   3.102   0.861  1.00  0.00     0.163 HD
ATOM     10  C   UNL d   1       4.813   4.257   2.620  0.00  0.00     0.240 C 
ATOM     11  O   UNL d   1       4.018   4.532   3.558  0.00  0.00    -0.271 OA
ATOM     12  C   UNL d   1       6.190   4.852   2.632  0.00  0.00     0.172 C 
ATOM     13  C   UNL d   1       6.091   6.356   2.483  0.00  0.00     0.042 C 
ATOM     14  N   UNL d   1       7.012   4.320   1.554  0.00  0.00    -0.346 N 
ATOM     15  HN  UNL d   1       7.183   4.905   0.737  1.00  0.00     0.163 HD
ATOM     16  C   UNL d   1       7.591   3.011   1.592  0.00  0.00     0.241 C 
ATOM     17  O   UNL d   1       7.615   2.366   2.674  0.00  0.00    -0.271 OA
ATOM     18  C   UNL d   1       8.219   2.432   0.352  0.00  0.00     0.179 C 
ATOM     19  N   UNL d   1       8.220   0.966   0.384  0.00  0.00    -0.341 N 
ATOM     20  C   UNL d   1       9.513   0.311   0.465  0.00  0.00     0.153 C 
ATOM     21  C   UNL d   1       6.998   0.200   0.375  0.00  0.00     0.243 C 
ATOM     22  O   UNL d   1       5.893   0.798   0.448  0.00  0.00    -0.271 OA
ATOM     23  C   UNL d   1       7.022  -1.306   0.289  0.00  0.00     0.180 C 
ATOM     24  N   UNL d   1       5.734  -1.934   0.608  0.00  0.00    -0.346 N 
ATOM     25  HN  UNL d   1       5.714  -2.544   1.425  1.00  0.00     0.163 HD
ATOM     26  C   UNL d   1       4.497  -1.781  -0.110  0.00  0.00     0.241 C 
ATOM     27  O   UNL d   1       4.412  -0.967  -1.069  0.00  0.00    -0.271 OA
ATOM     28  C   UNL d   1       3.269  -2.528   0.333  0.00  0.00     0.179 C 
ATOM     29  N   UNL d   1       2.448  -2.909  -0.818  0.00  0.00    -0.342 N 
ATOM     30  C   UNL d   1       2.983  -3.840  -1.808  0.00  0.00     0.153 C 
ATOM     31  C   UNL d   1       1.192  -2.256  -1.051  0.00  0.00     0.238 C 
ATOM     32  O   UNL d   1       0.762  -1.397  -0.238  0.00  0.00    -0.272 OA
ATOM     33  C   UNL d   1       0.352  -2.606  -2.242  0.00  0.00     0.228 C 
ATOM     34  N   UNL d   1      -0.685  -3.561  -1.870  0.00  0.00    -0.346 N 
ATOM     35  C   UNL d   1      -0.312  -4.955  -1.663  0.00  0.00     0.153 C 
ATOM     36  C   UNL d   1      -2.049  -3.135  -1.740  0.00  0.00     0.242 C 
ATOM     37  O   UNL d   1      -2.371  -1.948  -2.029  0.00  0.00    -0.271 OA
ATOM     38  C   UNL d   1      -3.108  -4.106  -1.301  0.00  0.00     0.176 C 
ATOM     39  N   UNL d   1      -4.152  -3.438  -0.536  0.00  0.00    -0.346 N 
ATOM     40  HN  UNL d   1      -4.359  -2.460  -0.738  1.00  0.00     0.163 HD
ATOM     41  C   UNL d   1      -4.896  -4.101   0.485  0.00  0.00     0.243 C 
ATOM     42  O   UNL d   1      -4.574  -5.261   0.858  0.00  0.00    -0.271 OA
ATOM     43  C   UNL d   1      -6.085  -3.433   1.109  0.00  0.00     0.207 C 
ATOM     44  N   UNL d   1      -5.793  -2.038   1.453  0.00  0.00    -0.339 N 
ATOM     45  C   UNL d   1      -5.502  -1.758   2.851  0.00  0.00     0.153 C 
ATOM     46  C   UNL d   1      -5.722  -0.985   0.469  0.00  0.00     0.243 C 
ATOM     47  O   UNL d   1      -6.021  -1.223  -0.736  0.00  0.00    -0.271 OA
ATOM     48  C   UNL d   1      -5.322   0.412   0.867  0.00  0.00     0.182 C 
ATOM     49  N   UNL d   1      -4.797   1.194  -0.262  0.00  0.00    -0.341 N 
ATOM     50  C   UNL d   1      -5.691   1.702  -1.299  0.00  0.00     0.153 C 
ATOM     51  C   UNL d   1      -3.378   1.372  -0.396  0.00  0.00     0.243 C 
ATOM     52  O   UNL d   1      -2.587   0.765   0.374  0.00  0.00    -0.271 OA
ATOM     53  C   UNL d   1      -2.830   2.286  -1.448  0.00  0.00     0.179 C 
ATOM     54  N   UNL d   1      -2.170   3.453  -0.853  0.00  0.00    -0.341 N 
ATOM     55  C   UNL d   1      -2.998   4.633  -0.666  0.00  0.00     0.153 C 
ATOM     56  C   UNL d   1      -0.808   3.433  -0.374  0.00  0.00     0.243 C 
ATOM     57  O   UNL d   1      -0.093   2.408  -0.542  0.00  0.00    -0.271 OA
ENDROOT
BRANCH  43  58
ATOM     58  C   UNL d   1      -7.360  -3.582   0.264  0.00  0.00     0.154 C 
BRANCH  58  59
ATOM     59  O   UNL d   1      -8.399  -2.805   0.789  0.00  0.00    -0.393 OA
ATOM     60  HO  UNL d   1      -9.187  -2.897   0.267  1.00  0.00     0.210 HD
ENDBRANCH  58  59
BRANCH  58  61
ATOM     61  C   UNL d   1      -7.791  -5.046   0.114  0.00  0.00     0.016 C 
ATOM     62  C   UNL d   1      -8.954  -5.198  -0.858  0.00  0.00     0.013 C 
BRANCH  61  63
ATOM     63  C   UNL d   1      -8.020  -5.804   1.433  0.00  0.00     0.034 C 
BRANCH  63  64
ATOM     64  C   UNL d   1      -9.277  -5.418   2.149  0.00  0.00    -0.026 C 
ATOM     65  C   UNL d   1      -9.278  -4.446   3.044  0.00  0.00    -0.005 C 
BRANCH  65  66
ATOM     66  C   UNL d   1     -10.512  -4.076   3.722  0.00  0.00    -0.011 C 
ATOM     67  C   UNL d   1     -10.516  -3.066   4.574  0.00  0.00     0.011 C 
ENDBRANCH  65  66
ENDBRANCH  63  64
ENDBRANCH  61  63
ENDBRANCH  58  61
ENDBRANCH  43  58
BRANCH  38  68
ATOM     68  C   UNL d   1      -3.709  -4.872  -2.479  0.00  0.00     0.030 C 
ATOM     69  C   UNL d   1      -4.492  -3.961  -3.418  0.00  0.00     0.007 C 
ENDBRANCH  38  68
BRANCH  48  70
ATOM     70  C   UNL d   1      -6.402   1.139   1.684  0.00  0.00     0.009 C 
ATOM     71  C   UNL d   1      -7.715   1.330   0.933  0.00  0.00     0.012 C 
ATOM     72  C   UNL d   1      -5.898   2.464   2.217  0.00  0.00     0.012 C 
ENDBRANCH  48  70
BRANCH  53  73
ATOM     73  C   UNL d   1      -1.969   1.544  -2.466  0.00  0.00     0.039 C 
BRANCH  73  74
ATOM     74  C   UNL d   1      -1.659   2.422  -3.664  0.00  0.00    -0.020 C 
ATOM     75  C   UNL d   1      -2.890   2.563  -4.536  0.00  0.00     0.009 C 
ATOM     76  C   UNL d   1      -0.539   1.802  -4.469  0.00  0.00     0.009 C 
ENDBRANCH  73  74
ENDBRANCH  53  73
BRANCH  28  77
ATOM     77  C   UNL d   1       3.617  -3.749   1.185  0.00  0.00     0.039 C 
BRANCH  77  78
ATOM     78  C   UNL d   1       2.452  -4.150   2.073  0.00  0.00    -0.020 C 
ATOM     79  C   UNL d   1       1.495  -5.056   1.322  0.00  0.00     0.009 C 
ATOM     80  C   UNL d   1       2.981  -4.893   3.282  0.00  0.00     0.009 C 
ENDBRANCH  77  78
ENDBRANCH  28  77
BRANCH   1  81
ATOM     81  C   UNL d   1       0.118   5.868  -0.543  0.00  0.00     0.039 C 
BRANCH  81  82
ATOM     82  C   UNL d   1      -0.265   5.757  -2.022  0.00  0.00    -0.020 C 
ATOM     83  C   UNL d   1       0.786   4.976  -2.783  0.00  0.00     0.009 C 
ATOM     84  C   UNL d   1      -0.379   7.152  -2.603  0.00  0.00     0.009 C 
ENDBRANCH  81  82
ENDBRANCH   1  81
BRANCH  23  85
ATOM     85  C   UNL d   1       7.677  -1.853  -0.984  0.00  0.00     0.009 C 
ATOM     86  C   UNL d   1       6.974  -1.443  -2.267  0.00  0.00     0.012 C 
ATOM     87  C   UNL d   1       7.818  -3.360  -0.922  0.00  0.00     0.012 C 
ENDBRANCH  23  85
BRANCH  18  88
ATOM     88  C   UNL d   1       7.532   2.946  -0.922  0.00  0.00     0.039 C 
BRANCH  88  89
ATOM     89  C   UNL d   1       8.344   2.604  -2.161  0.00  0.00    -0.020 C 
ATOM     90  C   UNL d   1       9.465   3.615  -2.345  0.00  0.00     0.009 C 
ATOM     91  C   UNL d   1       7.429   2.642  -3.373  0.00  0.00     0.009 C 
ENDBRANCH  88  89
ENDBRANCH  18  88
TORSDOF 17
