REMARK  5 active torsions:
REMARK  status: ('A' for Active; 'I' for Inactive)
REMARK    1  A    between atoms: C_2  and  C_3 
REMARK    2  A    between atoms: C_3  and  C_4 
REMARK    3  A    between atoms: C_11  and  C_15 
REMARK    4  A    between atoms: C_20  and  C_24 
REMARK    5  A    between atoms: N_21  and  C_22 
ROOT
ATOM      1  C   UNL d   1      -0.187  -0.073  -0.713  0.00  0.00     0.005 A 
ATOM      2  C   UNL d   1       1.006   0.130   0.061  0.00  0.00     0.058 A 
ATOM      3  C   UNL d   1       0.859   0.344   1.461  0.00  0.00     0.043 A 
ATOM      4  C   UNL d   1      -0.408   0.441   2.042  0.00  0.00     0.036 A 
ATOM      5  C   UNL d   1      -1.560   0.310   1.274  0.00  0.00     0.050 A 
ATOM      6  C   UNL d   1      -1.454   0.043  -0.104  0.00  0.00     0.099 A 
ATOM      7  O   UNL d   1      -2.561  -0.110  -0.833  0.00  0.00    -0.302 OA
ATOM      8  C   UNL d   1      -3.786  -0.017  -0.322  0.00  0.00     0.156 A 
ATOM      9  C   UNL d   1      -3.959   0.250   1.041  0.00  0.00     0.100 A 
ATOM     10  C   UNL d   1      -2.835   0.413   1.845  0.00  0.00     0.187 A 
ATOM     11  O   UNL d   1      -2.980   0.649   3.075  0.00  0.00    -0.287 OA
ATOM     12  C   UNL d   1       1.993   0.462   2.269  0.00  0.00     0.186 A 
ATOM     13  O   UNL d   1       1.891   0.647   3.513  0.00  0.00    -0.287 OA
ATOM     14  C   UNL d   1       3.250   0.364   1.704  0.00  0.00     0.092 A 
ATOM     15  C   UNL d   1       3.398   0.185   0.329  0.00  0.00     0.116 A 
ATOM     16  N   UNL d   1       2.284   0.127  -0.485  0.00  0.00    -0.340 N 
ENDROOT
BRANCH   1  17
ATOM     17  C   UNL d   1      -0.168  -0.515  -2.152  0.00  0.00     0.043 C 
BRANCH  17  18
ATOM     18  C   UNL d   1      -0.391  -2.017  -2.275  0.00  0.00     0.000 C 
ATOM     19  C   UNL d   1       0.848  -2.784  -1.850  0.00  0.00     0.005 C 
ENDBRANCH  17  18
ENDBRANCH   1  17
BRANCH  16  20
ATOM     20  C   UNL d   1       2.488   0.225  -1.933  0.00  0.00     0.125 C 
ATOM     21  C   UNL d   1       2.506   1.681  -2.363  0.00  0.00     0.027 C 
ENDBRANCH  16  20
BRANCH   8  22
ATOM     22  C   UNL d   1      -4.950  -0.198  -1.200  0.00  0.00     0.234 C 
ATOM     23  O   UNL d   1      -6.120  -0.114  -0.742  0.00  0.00    -0.642 OA
ATOM     24  O   UNL d   1      -4.762  -0.464  -2.550  0.00  0.00    -0.642 OA
ENDBRANCH   8  22
BRANCH  15  25
ATOM     25  C   UNL d   1       4.788   0.071  -0.188  0.00  0.00     0.227 C 
ATOM     26  O   UNL d   1       5.753   0.502   0.498  0.00  0.00    -0.643 OA
ATOM     27  O   UNL d   1       5.057  -0.552  -1.401  0.00  0.00    -0.643 OA
ENDBRANCH  15  25
TORSDOF 5
