REMARK  4 active torsions:
REMARK  status: ('A' for Active; 'I' for Inactive)
REMARK    1  A    between atoms: C_3  and  C_22 
REMARK    2  A    between atoms: C_11  and  C_12 
REMARK    3  A    between atoms: C_15  and  S_18 
REMARK    4  A    between atoms: C_22  and  C_23 
ROOT
ATOM      1  C   UNL d   1      -2.472  -0.974   2.766  0.00  0.00     0.049 C 
ATOM      2  C   UNL d   1      -2.126  -0.371   1.444  0.00  0.00    -0.043 A 
ATOM      3  C   UNL d   1      -3.013   0.014   0.524  0.00  0.00    -0.030 A 
ATOM      4  C   UNL d   1      -2.289   0.535  -0.631  0.00  0.00    -0.015 A 
ATOM      5  C   UNL d   1      -2.791   1.100  -1.803  0.00  0.00     0.055 A 
ATOM      6  C   UNL d   1      -1.873   1.597  -2.743  0.00  0.00     0.117 A 
ATOM      7  C   UNL d   1      -0.490   1.542  -2.484  0.00  0.00     0.043 A 
ATOM      8  C   UNL d   1      -0.010   0.977  -1.292  0.00  0.00     0.016 A 
ATOM      9  C   UNL d   1      -0.934   0.457  -0.385  0.00  0.00    -0.014 A 
ATOM     10  C   UNL d   1      -0.761  -0.139   0.946  0.00  0.00    -0.018 A 
ATOM     11  C   UNL d   1       0.352  -0.389   1.649  0.00  0.00     0.024 C 
ATOM     12  F   UNL d   1      -2.322   2.147  -3.896  0.00  0.00    -0.206 F 
ENDROOT
BRANCH  11  13
ATOM     13  C   UNL d   1       1.744  -0.274   1.190  0.00  0.00    -0.035 A 
ATOM     14  C   UNL d   1       2.721   0.120   2.111  0.00  0.00     0.013 A 
ATOM     15  C   UNL d   1       4.067   0.175   1.734  0.00  0.00     0.022 A 
ATOM     16  C   UNL d   1       4.444  -0.183   0.436  0.00  0.00     0.031 A 
ATOM     17  C   UNL d   1       3.478  -0.610  -0.478  0.00  0.00     0.022 A 
ATOM     18  C   UNL d   1       2.134  -0.665  -0.099  0.00  0.00     0.013 A 
BRANCH  16  19
ATOM     19  S   UNL d   1       6.126  -0.114  -0.041  0.00  0.00     0.045 S 
ATOM     20  O   UNL d   1       7.049  -1.135   0.922  0.00  0.00    -0.253 OA
ATOM     21  C   UNL d   1       6.735   1.554   0.034  0.00  0.00     0.133 C 
ENDBRANCH  16  19
ENDBRANCH  11  13
BRANCH   3  22
ATOM     22  C   UNL d   1      -4.500  -0.106   0.638  0.00  0.00     0.153 C 
BRANCH  22  23
ATOM     23  C   UNL d   1      -4.968  -1.360  -0.015  0.00  0.00     0.177 C 
ATOM     24  O   UNL d   1      -5.340  -1.343  -1.217  0.00  0.00    -0.648 OA
ATOM     25  O   UNL d   1      -4.961  -2.556   0.691  0.00  0.00    -0.648 OA
ENDBRANCH  22  23
ENDBRANCH   3  22
TORSDOF 4
