REMARK  2 active torsions:
REMARK  status: ('A' for Active; 'I' for Inactive)
REMARK    1  A    between atoms: C_10  and  C_11 
REMARK       I    between atoms: C_11  and  N_13 
REMARK    2  A    between atoms: N_13  and  C_15 
ROOT
ATOM      1  C   UNL d   1      -1.507   0.087  -3.458  0.00  0.00     0.016 C 
ATOM      2  C   UNL d   1      -1.129  -0.292  -2.036  0.00  0.00    -0.028 C 
ATOM      3  C   UNL d   1      -0.605   0.976  -1.334  0.00  0.00     0.011 C 
ATOM      4  C   UNL d   1       0.861   1.226  -1.672  0.00  0.00     0.007 C 
ATOM      5  C   UNL d   1       1.748   0.103  -1.107  0.00  0.00     0.004 C 
ATOM      6  C   UNL d   1       1.069  -1.298  -1.084  0.00  0.00    -0.004 C 
ATOM      7  C   UNL d   1      -0.083  -1.416  -2.109  0.00  0.00    -0.001 C 
ATOM      8  C   UNL d   1      -0.844  -2.725  -1.990  0.00  0.00     0.007 C 
ATOM      9  C   UNL d   1      -2.106  -2.410  -1.209  0.00  0.00     0.015 C 
ATOM     10  C   UNL d   1      -2.371  -0.920  -1.379  0.00  0.00     0.086 C 
ATOM     11  C   UNL d   1       0.679  -1.719   0.342  0.00  0.00     0.007 C 
ATOM     12  C   UNL d   1       1.900  -1.798   1.268  0.00  0.00     0.026 C 
ATOM     13  C   UNL d   1       3.006  -0.812   0.872  0.00  0.00     0.097 C 
ATOM     14  C   UNL d   1       2.474   0.481   0.209  0.00  0.00    -0.002 C 
ATOM     15  C   UNL d   1       3.636   1.397  -0.098  0.00  0.00    -0.009 C 
ATOM     16  C   UNL d   1       4.711   1.464   0.697  0.00  0.00     0.071 C 
ATOM     17  C   UNL d   1       4.818   0.568   1.859  0.00  0.00     0.241 C 
ATOM     18  O   UNL d   1       5.717   0.744   2.721  0.00  0.00    -0.269 OA
ATOM     19  N   UNL d   1       3.887  -0.509   1.996  0.00  0.00    -0.352 N 
ATOM     20  HN  UNL d   1       3.840  -1.052   2.858  1.00  0.00     0.163 HD
ATOM     21  C   UNL d   1       1.537   1.210   1.179  0.00  0.00     0.022 C 
ENDROOT
BRANCH  10  22
ATOM     22  C   UNL d   1      -2.818  -0.300  -0.087  0.00  0.00     0.223 C 
ATOM     23  O   UNL d   1      -2.179  -0.517   0.980  0.00  0.00    -0.273 OA
ATOM     24  N   UNL d   1      -3.954   0.573  -0.091  0.00  0.00    -0.353 N 
ATOM     25  HN  UNL d   1      -4.440   0.711  -0.977  1.00  0.00     0.163 HD
BRANCH  24  26
ATOM     26  C   UNL d   1      -4.468   1.280   1.079  0.00  0.00     0.022 C 
ATOM     27  C   UNL d   1      -4.897   0.292   2.149  0.00  0.00     0.037 C 
ATOM     28  C   UNL d   1      -5.671   2.100   0.666  0.00  0.00     0.037 C 
ATOM     29  C   UNL d   1      -3.411   2.215   1.639  0.00  0.00     0.037 C 
ENDBRANCH  24  26
ENDBRANCH  10  22
TORSDOF 2
