REMARK  1 active torsions:
REMARK  status: ('A' for Active; 'I' for Inactive)
REMARK    1  A    between atoms: C_3  and  N_4 
ROOT
ATOM      1  N   UNL d   1      -0.151  -0.804  -0.263  0.00  0.00    -0.330 N 
ATOM      2  C   UNL d   1       0.280   0.387   0.481  0.00  0.00     0.168 A 
ATOM      3  C   UNL d   1       1.613   0.712  -0.132  0.00  0.00    -0.000 A 
ATOM      4  C   UNL d   1       1.921  -0.170  -1.146  0.00  0.00     0.042 A 
ATOM      5  C   UNL d   1       3.101  -0.075  -1.881  0.00  0.00     0.018 A 
ATOM      6  C   UNL d   1       3.992   0.962  -1.559  0.00  0.00     0.003 A 
ATOM      7  C   UNL d   1       3.688   1.870  -0.525  0.00  0.00     0.027 A 
ATOM      8  C   UNL d   1       2.489   1.749   0.197  0.00  0.00     0.055 A 
ATOM      9  N   UNL d   1       2.180   2.667   1.239  0.00  0.00    -0.102 NA
ATOM     10  C   UNL d   1       0.832  -1.105  -1.247  0.00  0.00     0.255 A 
ATOM     11  O   UNL d   1       0.739  -2.043  -2.083  0.00  0.00    -0.267 OA
ENDROOT
BRANCH   1  12
ATOM     12  C   UNL d   1      -1.492  -1.383  -0.239  0.00  0.00     0.180 C 
ATOM     13  C   UNL d   1      -1.972  -1.583   1.170  0.00  0.00     0.247 C 
ATOM     14  O   UNL d   1      -1.567  -2.571   1.835  0.00  0.00    -0.271 OA
ATOM     15  N   UNL d   1      -2.863  -0.640   1.772  0.00  0.00    -0.296 N 
ATOM     16  C   UNL d   1      -3.336   0.496   1.043  0.00  0.00     0.224 C 
ATOM     17  HN  UNL d   1      -3.166  -0.779   2.736  1.00  0.00     0.171 HD
ATOM     18  C   UNL d   1      -2.835   0.770  -0.340  0.00  0.00     0.106 C 
ATOM     19  O   UNL d   1      -4.140   1.297   1.586  0.00  0.00    -0.273 OA
ATOM     20  C   UNL d   1      -2.478  -0.535  -1.051  0.00  0.00     0.044 C 
ENDBRANCH   1  12
TORSDOF 1
