REMARK  Name = fda_7080
REMARK  4 active torsions:
REMARK  status: ('A' for Active; 'I' for Inactive)
REMARK    1  A    between atoms: C_1  and  C_2
REMARK    2  A    between atoms: C_1  and  O_8
REMARK    3  A    between atoms: C_2  and  N_3
REMARK    4  A    between atoms: O_8  and  C_9
REMARK                            x       y       z     vdW  Elec       q    Type
REMARK                         _______ _______ _______ _____ _____    ______ ____
ROOT
ATOM      1  C   UNL A   1       2.454  -0.220  -0.373  0.00  0.00    +0.137 A 
ATOM      2  C   UNL A   1       2.891   0.831  -1.193  0.00  0.00    +0.038 A 
ATOM      3  C   UNL A   1       2.055   1.917  -1.453  0.00  0.00    +0.020 A 
ATOM      4  C   UNL A   1       0.767   1.966  -0.913  0.00  0.00    +0.073 A 
ATOM      5  N   UNL A   1      -0.027   3.134  -1.147  0.00  0.00    -0.178 NA
ATOM      6  C   UNL A   1      -1.419   3.308  -0.861  0.00  0.00    +0.241 A 
ATOM      7  N   UNL A   1      -1.917   4.570  -0.783  0.00  0.00    -0.211 NA
ATOM      8  C   UNL A   1      -3.233   4.791  -0.545  0.00  0.00    +0.103 A 
ATOM      9  C   UNL A   1      -4.100   3.714  -0.394  0.00  0.00    +0.040 A 
ATOM     10  C   UNL A   1      -3.589   2.415  -0.494  0.00  0.00    +0.086 A 
ATOM     11  N   UNL A   1      -2.255   2.240  -0.725  0.00  0.00    -0.212 NA
ATOM     12  C   UNL A   1      -4.496   1.250  -0.387  0.00  0.00    +0.018 A 
ATOM     13  C   UNL A   1      -5.850   1.433  -0.054  0.00  0.00    +0.002 A 
ATOM     14  C   UNL A   1      -6.719   0.343   0.023  0.00  0.00    -0.000 A 
ATOM     15  C   UNL A   1      -6.247  -0.944  -0.239  0.00  0.00    -0.002 A 
ATOM     16  C   UNL A   1      -4.906  -1.141  -0.579  0.00  0.00    +0.007 A 
ATOM     17  C   UNL A   1      -4.409  -2.519  -0.838  0.00  0.00    +0.169 C 
ATOM     18  O   UNL A   1      -4.110  -3.143   0.376  0.00  0.00    -0.344 OA
ATOM     19  C   UNL A   1      -3.428  -4.314   0.032  0.00  0.00    +0.169 C 
ATOM     20  C   UNL A   1      -1.951  -4.085   0.077  0.00  0.00    +0.004 C 
ATOM     21  C   UNL A   1      -1.361  -3.674   1.197  0.00  0.00    +0.004 C 
ATOM     22  C   UNL A   1       0.108  -3.405   1.224  0.00  0.00    +0.169 C 
ATOM     23  O   UNL A   1       0.426  -2.408   0.298  0.00  0.00    -0.344 OA
ATOM     24  C   UNL A   1       0.669  -1.266   1.062  0.00  0.00    +0.172 C 
ATOM     25  C   UNL A   1       1.163  -0.169   0.180  0.00  0.00    +0.043 A 
ATOM     26  C   UNL A   1       0.325   0.920  -0.091  0.00  0.00    +0.018 A 
ATOM     27  C   UNL A   1      -4.030  -0.050  -0.644  0.00  0.00    -0.000 A 
ENDROOT
BRANCH   1  28
ATOM     28  O   UNL A   1       3.283  -1.317  -0.099  0.00  0.00    -0.474 OA
BRANCH  28  29
ATOM     29  C   UNL A   1       4.621  -1.425  -0.574  0.00  0.00    +0.223 C 
BRANCH  29  30
ATOM     30  C   UNL A   1       5.543  -0.552   0.261  0.00  0.00    +0.120 C 
BRANCH  30  31
ATOM     31  N   UNL A   1       6.902  -0.646  -0.246  0.00  0.00    -0.270 NA
ATOM     32  C   UNL A   1       7.535   0.649  -0.010  0.00  0.00    +0.072 C 
ATOM     33  C   UNL A   1       8.735   0.448   0.892  0.00  0.00    +0.019 C 
ATOM     34  C   UNL A   1       8.963  -1.036   0.905  0.00  0.00    +0.019 C 
ATOM     35  C   UNL A   1       7.607  -1.613   0.586  0.00  0.00    +0.072 C 
ENDBRANCH  30  31
ENDBRANCH  29  30
ENDBRANCH  28  29
ENDBRANCH   1  28
TORSDOF 4
