REMARK  13 active torsions:
REMARK  status: ('A' for Active; 'I' for Inactive)
REMARK    1  A    between atoms: C_7  and  C_8 
REMARK    2  A    between atoms: C_9  and  C_10 
REMARK    3  A    between atoms: C_17  and  C_30 
REMARK    4  A    between atoms: C_19  and  O_22 
REMARK    5  A    between atoms: O_22  and  C_23 
REMARK    6  A    between atoms: C_23  and  C_24 
REMARK    7  A    between atoms: C_24  and  C_25 
REMARK    8  A    between atoms: C_25  and  C_26 
REMARK    9  A    between atoms: C_30  and  O_31 
REMARK   10  A    between atoms: O_31  and  C_32 
REMARK   11  A    between atoms: C_32  and  C_33 
REMARK   12  A    between atoms: C_33  and  C_34 
REMARK   13  A    between atoms: C_34  and  C_35 
ROOT
ATOM      1  C   UNL d   1       0.042  -1.607  -0.533  0.00  0.00     0.016 C 
ATOM      2  C   UNL d   1      -0.724  -0.345  -0.117  0.00  0.00    -0.029 C 
ATOM      3  C   UNL d   1       0.107   0.928  -0.394  0.00  0.00     0.008 C 
ATOM      4  C   UNL d   1       0.499   1.044  -1.870  0.00  0.00     0.010 C 
ATOM      5  C   UNL d   1      -0.765   1.169  -2.716  0.00  0.00     0.034 C 
ATOM      6  C   UNL d   1      -1.757   0.083  -2.398  0.00  0.00    -0.081 C 
ATOM      7  C   UNL d   1      -2.036  -0.238  -0.931  0.00  0.00     0.044 C 
ATOM      8  C   UNL d   1      -2.644  -0.217  -3.349  0.00  0.00     0.015 C 
ATOM      9  C   UNL d   1       1.128   1.379   0.694  0.00  0.00     0.009 C 
ATOM     10  C   UNL d   1       0.477   2.496   1.497  0.00  0.00     0.020 C 
ATOM     11  C   UNL d   1       1.449   0.233   1.679  0.00  0.00     0.142 C 
ATOM     12  C   UNL d   1       0.205  -0.450   2.275  0.00  0.00     0.034 C 
ATOM     13  C   UNL d   1      -1.044  -0.404   1.381  0.00  0.00     0.013 C 
ENDROOT
BRANCH   9  14
ATOM     14  C   UNL d   1       2.450   1.915   0.111  0.00  0.00     0.191 C 
BRANCH  14  15
ATOM     15  O   UNL d   1       2.250   3.023  -0.762  0.00  0.00    -0.321 OA
BRANCH  15  16
ATOM     16  C   UNL d   1       2.316   4.349  -0.326  0.00  0.00     0.259 C 
ATOM     17  O   UNL d   1       2.668   4.625   0.852  0.00  0.00    -0.265 OA
BRANCH  16  18
ATOM     18  C   UNL d   1       2.005   5.458  -1.276  0.00  0.00     0.121 C 
BRANCH  18  19
ATOM     19  C   UNL d   1       0.726   5.184  -2.060  0.00  0.00     0.123 C 
BRANCH  19  20
ATOM     20  C   UNL d   1      -0.478   5.297  -1.187  0.00  0.00     0.172 C 
ATOM     21  O   UNL d   1      -0.903   6.543  -0.743  0.00  0.00    -0.648 OA
ATOM     22  O   UNL d   1      -1.104   4.261  -0.844  0.00  0.00    -0.648 OA
ENDBRANCH  19  20
ENDBRANCH  18  19
ENDBRANCH  16  18
ENDBRANCH  15  16
ENDBRANCH  14  15
ENDBRANCH   9  14
BRANCH  11  23
ATOM     23  O   UNL d   1       2.293  -0.749   1.087  0.00  0.00    -0.315 OA
BRANCH  23  24
ATOM     24  C   UNL d   1       3.655  -0.835   1.384  0.00  0.00     0.259 C 
ATOM     25  O   UNL d   1       4.187  -0.048   2.213  0.00  0.00    -0.265 OA
BRANCH  24  26
ATOM     26  C   UNL d   1       4.479  -1.889   0.737  0.00  0.00     0.121 C 
BRANCH  26  27
ATOM     27  C   UNL d   1       4.313  -3.200   1.483  0.00  0.00     0.123 C 
BRANCH  27  28
ATOM     28  C   UNL d   1       5.125  -4.260   0.828  0.00  0.00     0.172 C 
ATOM     29  O   UNL d   1       6.463  -4.416   1.161  0.00  0.00    -0.648 OA
ATOM     30  O   UNL d   1       4.607  -4.994  -0.053  0.00  0.00    -0.648 OA
ENDBRANCH  27  28
ENDBRANCH  26  27
ENDBRANCH  24  26
ENDBRANCH  23  24
ENDBRANCH  11  23
BRANCH   7  31
ATOM     31  C   UNL d   1      -2.918  -1.442  -0.733  0.00  0.00    -0.016 C 
ATOM     32  C   UNL d   1      -4.239  -1.341  -0.820  0.00  0.00     0.014 C 
BRANCH  32  33
ATOM     33  C   UNL d   1      -5.122  -2.497  -0.633  0.00  0.00     0.037 A 
ATOM     34  C   UNL d   1      -6.444  -2.440  -0.711  0.00  0.00     0.017 A 
ATOM     35  C   UNL d   1      -7.029  -3.808  -0.464  0.00  0.00     0.207 A 
ATOM     36  O   UNL d   1      -5.893  -4.636  -0.236  0.00  0.00    -0.314 OA
ATOM     37  C   UNL d   1      -4.756  -3.864  -0.337  0.00  0.00     0.293 A 
ATOM     38  O   UNL d   1      -3.587  -4.306  -0.186  0.00  0.00    -0.259 OA
ENDBRANCH  32  33
ENDBRANCH   7  31
TORSDOF 13
