REMARK  9 active torsions:
REMARK  status: ('A' for Active; 'I' for Inactive)
REMARK    1  A    between atoms: C_2  and  C_3 
REMARK    2  A    between atoms: C_3  and  C_4 
REMARK    3  A    between atoms: C_4  and  C_5 
REMARK    4  A    between atoms: C_5  and  O_7 
REMARK    5  A    between atoms: O_7  and  C_8 
REMARK    6  A    between atoms: C_8  and  C_9 
REMARK    7  A    between atoms: C_9  and  C_11 
REMARK    8  A    between atoms: C_11  and  O_35 
REMARK    9  A    between atoms: C_17  and  O_31 
ROOT
ATOM      1  C   UNL d   1       1.586  -0.400  -0.347  0.00  0.00     0.131 C 
ATOM      2  C   UNL d   1       1.546  -0.785   1.146  0.00  0.00     0.025 C 
ATOM      3  C   UNL d   1       0.288  -0.153   1.733  0.00  0.00     0.013 C 
ATOM      4  C   UNL d   1      -0.442   0.518   0.578  0.00  0.00     0.005 C 
ATOM      5  C   UNL d   1       0.109  -0.097  -0.715  0.00  0.00     0.001 C 
ATOM      6  C   UNL d   1      -0.628  -1.410  -1.106  0.00  0.00     0.048 C 
ATOM      7  C   UNL d   1      -2.159  -1.369  -0.970  0.00  0.00     0.160 C 
ATOM      8  C   UNL d   1      -2.568  -0.959   0.458  0.00  0.00     0.147 C 
ATOM      9  C   UNL d   1      -1.966   0.444   0.671  0.00  0.00     0.035 C 
ATOM     10  C   UNL d   1      -2.625   1.238   1.783  0.00  0.00     0.013 C 
ATOM     11  C   UNL d   1      -4.041   1.593   1.323  0.00  0.00     0.036 C 
ATOM     12  C   UNL d   1      -4.723   0.440   0.625  0.00  0.00    -0.061 C 
ATOM     13  C   UNL d   1      -5.870   0.687  -0.012  0.00  0.00     0.058 C 
ATOM     14  C   UNL d   1      -6.577  -0.379  -0.727  0.00  0.00     0.172 C 
ATOM     15  O   UNL d   1      -7.683  -0.145  -1.278  0.00  0.00    -0.289 OA
ATOM     16  C   UNL d   1      -5.970  -1.708  -0.825  0.00  0.00     0.052 C 
ATOM     17  C   UNL d   1      -4.832  -1.975  -0.183  0.00  0.00    -0.006 C 
ATOM     18  C   UNL d   1      -4.130  -0.973   0.717  0.00  0.00     0.036 C 
ATOM     19  C   UNL d   1      -4.414  -1.444   2.143  0.00  0.00     0.028 C 
ATOM     20  F   UNL d   1      -1.959  -1.856   1.328  0.00  0.00    -0.238 F 
ATOM     21  C   UNL d   1      -0.020   0.893  -1.871  0.00  0.00     0.019 C 
ATOM     22  C   UNL d   1       1.490  -2.288   1.382  0.00  0.00     0.013 C 
ENDROOT
BRANCH   1  23
ATOM     23  C   UNL d   1       2.497   0.815  -0.490  0.00  0.00     0.186 C 
ATOM     24  O   UNL d   1       2.262   1.839   0.134  0.00  0.00    -0.292 OA
BRANCH  23  25
ATOM     25  C   UNL d   1       3.716   0.769  -1.355  0.00  0.00     0.260 C 
BRANCH  25  26
ATOM     26  O   UNL d   1       4.824   0.322  -0.588  0.00  0.00    -0.314 OA
BRANCH  26  27
ATOM     27  C   UNL d   1       6.087   0.146  -1.153  0.00  0.00     0.259 C 
ATOM     28  O   UNL d   1       6.287   0.381  -2.375  0.00  0.00    -0.265 OA
BRANCH  27  29
ATOM     29  C   UNL d   1       7.221  -0.290  -0.289  0.00  0.00     0.111 C 
BRANCH  29  30
ATOM     30  C   UNL d   1       8.008   0.909   0.213  0.00  0.00     0.009 C 
BRANCH  30  31
ATOM     31  C   UNL d   1       7.250   1.624   1.316  0.00  0.00    -0.004 C 
ATOM     32  C   UNL d   1       8.059   2.814   1.789  0.00  0.00     0.005 C 
ENDBRANCH  30  31
ENDBRANCH  29  30
ENDBRANCH  27  29
ENDBRANCH  26  27
ENDBRANCH  25  26
ENDBRANCH  23  25
ENDBRANCH   1  23
BRANCH   1  33
ATOM     33  O   UNL d   1       2.093  -1.448  -1.131  0.00  0.00    -0.381 OA
ATOM     34  HO  UNL d   1       1.526  -2.205  -1.043  1.00  0.00     0.211 HD
ENDBRANCH   1  33
BRANCH   7  35
ATOM     35  O   UNL d   1      -2.713  -0.514  -1.928  0.00  0.00    -0.392 OA
ATOM     36  HO  UNL d   1      -3.659  -0.489  -1.843  1.00  0.00     0.210 HD
ENDBRANCH   7  35
TORSDOF 9
