REMARK  Name = fda_7402
REMARK  12 active torsions:
REMARK  status: ('A' for Active; 'I' for Inactive)
REMARK    1  A    between atoms: C_2  and  C_3
REMARK    2  A    between atoms: C_3  and  C_4
REMARK    3  A    between atoms: C_4  and  C_5
REMARK    4  A    between atoms: C_5  and  C_6
REMARK    5  A    between atoms: C_6  and  C_7
REMARK    6  A    between atoms: C_16  and  C_17
REMARK    7  A    between atoms: C_17  and  C_18
REMARK    8  A    between atoms: C_17  and  C_20
REMARK    9  A    between atoms: C_24  and  N_25
REMARK   10  A    between atoms: N_25  and  S_26
REMARK   11  A    between atoms: S_26  and  C_29
REMARK   12  A    between atoms: C_32  and  C_35
REMARK                            x       y       z     vdW  Elec       q    Type
REMARK                         _______ _______ _______ _____ _____    ______ ____
ROOT
ATOM      1  C   UNL A   1       0.249  -0.076  -1.368  0.00  0.00    +0.054 C 
ENDROOT
BRANCH   1   6
ATOM      2  C   UNL A   1      -3.348  -1.270   0.802  0.00  0.00    +0.144 C 
ATOM      3  C   UNL A   1      -1.990  -1.573   1.456  0.00  0.00    +0.109 C 
ATOM      4  C   UNL A   1      -0.848  -0.900   0.739  0.00  0.00    +0.179 C 
ATOM      5  O   UNL A   1       0.265  -0.535   1.487  0.00  0.00    -0.291 OA
ATOM      6  C   UNL A   1      -0.888  -0.696  -0.592  0.00  0.00    +0.092 C 
ATOM      7  C   UNL A   1      -2.113  -1.065  -1.326  0.00  0.00    +0.340 C 
ATOM      8  O   UNL A   1      -2.138  -1.053  -2.585  0.00  0.00    -0.245 OA
ATOM      9  O   UNL A   1      -3.256  -1.440  -0.617  0.00  0.00    -0.452 OA
BRANCH   2  10
ATOM     10  C   UNL A   1      -4.406  -2.212   1.383  0.00  0.00    +0.041 C 
BRANCH  10  12
ATOM     11  C   UNL A   1      -4.801  -3.996  -0.318  0.00  0.00    +0.000 C 
ATOM     12  C   UNL A   1      -4.172  -3.675   1.024  0.00  0.00    +0.004 C 
ENDBRANCH  10  12
ENDBRANCH   2  10
BRANCH   2  13
ATOM     13  C   UNL A   1      -3.732   0.178   1.143  0.00  0.00    +0.045 C 
BRANCH  13  14
ATOM     14  C   UNL A   1      -4.777   0.781   0.203  0.00  0.00    +0.030 C 
BRANCH  14  15
ATOM     15  C   UNL A   1      -6.154   0.300   0.514  0.00  0.00    -0.022 A 
ATOM     16  C   UNL A   1      -6.821   0.755   1.656  0.00  0.00    -0.004 A 
ATOM     17  C   UNL A   1      -8.117   0.309   1.936  0.00  0.00    -0.000 A 
ATOM     18  C   UNL A   1      -8.747  -0.592   1.073  0.00  0.00    -0.000 A 
ATOM     19  C   UNL A   1      -8.081  -1.050  -0.068  0.00  0.00    -0.000 A 
ATOM     20  C   UNL A   1      -6.786  -0.604  -0.348  0.00  0.00    -0.004 A 
ENDBRANCH  14  15
ENDBRANCH  13  14
ENDBRANCH   2  13
ENDBRANCH   1   6
BRANCH   1  21
ATOM     21  C   UNL A   1       0.571   1.354  -1.047  0.00  0.00    -0.017 A 
ATOM     22  C   UNL A   1      -0.048   2.372  -1.779  0.00  0.00    -0.004 A 
ATOM     23  C   UNL A   1       0.234   3.712  -1.499  0.00  0.00    +0.001 A 
ATOM     24  C   UNL A   1       1.137   4.039  -0.484  0.00  0.00    +0.018 A 
ATOM     25  C   UNL A   1       1.758   3.031   0.257  0.00  0.00    +0.091 A 
ATOM     26  C   UNL A   1       1.468   1.689  -0.027  0.00  0.00    +0.014 A 
BRANCH  25  27
ATOM     27  N   UNL A   1       2.691   3.388   1.283  0.00  0.00    -0.095 NA
BRANCH  27  28
ATOM     28  S   UNL A   1       3.509   2.227   2.279  0.00  0.00    +0.110 S 
ATOM     29  O   UNL A   1       2.492   1.458   3.076  0.00  0.00    -0.147 OA
ATOM     30  O   UNL A   1       4.431   2.951   3.218  0.00  0.00    -0.147 OA
BRANCH  28  31
ATOM     31  C   UNL A   1       4.448   1.127   1.287  0.00  0.00    +0.208 A 
ATOM     32  C   UNL A   1       4.927  -0.068   1.834  0.00  0.00    +0.040 A 
ATOM     33  C   UNL A   1       5.664  -0.939   1.032  0.00  0.00    +0.008 A 
ATOM     34  C   UNL A   1       5.907  -0.625  -0.309  0.00  0.00    +0.091 A 
ATOM     35  C   UNL A   1       5.421   0.592  -0.811  0.00  0.00    +0.104 A 
ATOM     36  N   UNL A   1       4.713   1.433  -0.011  0.00  0.00    -0.224 NA
BRANCH  34  37
ATOM     37  C   UNL A   1       6.717  -1.532  -1.185  0.00  0.00    +0.420 C 
ATOM     38  F   UNL A   1       7.972  -0.983  -1.377  0.00  0.00    -0.166 F 
ATOM     39  F   UNL A   1       6.095  -1.681  -2.412  0.00  0.00    -0.166 F 
ATOM     40  F   UNL A   1       6.859  -2.781  -0.605  0.00  0.00    -0.166 F 
ENDBRANCH  34  37
ENDBRANCH  28  31
ENDBRANCH  27  28
ENDBRANCH  25  27
ENDBRANCH   1  21
BRANCH   1  41
ATOM     41  C   UNL A   1       1.427  -0.993  -1.712  0.00  0.00    +0.009 C 
ATOM     42  C   UNL A   1       2.271  -1.355  -0.503  0.00  0.00    +0.001 C 
ENDBRANCH   1  41
TORSDOF 12
