REMARK  9 active torsions:
REMARK  status: ('A' for Active; 'I' for Inactive)
REMARK    1  A    between atoms: C_1  and  C_2 
REMARK    2  A    between atoms: C_2  and  C_3 
REMARK    3  A    between atoms: C_2  and  O_14 
REMARK    4  A    between atoms: C_3  and  C_4 
REMARK    5  A    between atoms: C_3  and  O_12 
REMARK    6  A    between atoms: C_4  and  C_5 
REMARK    7  A    between atoms: C_4  and  O_10 
REMARK    8  A    between atoms: C_5  and  C_6 
REMARK    9  A    between atoms: C_5  and  O_8 
ROOT
ATOM      1  C   UNL d   1      -0.354  -0.860  -0.389  0.00  0.00     0.178 C 
ENDROOT
BRANCH   1   2
ATOM      2  C   UNL d   1      -1.882  -0.831  -0.279  0.00  0.00     0.159 C 
BRANCH   2   3
ATOM      3  C   UNL d   1      -2.486   0.226  -1.189  0.00  0.00     0.119 C 
ATOM      4 BR   UNL d   1      -4.404  -0.007  -1.309  0.00  0.00    -0.094 Br
ENDBRANCH   2   3
BRANCH   2   5
ATOM      5  O   UNL d   1      -2.289  -0.634   1.043  0.00  0.00    -0.392 OA
ATOM      6  HO  UNL d   1      -1.912  -1.294   1.612  1.00  0.00     0.210 HD
ENDBRANCH   2   5
ENDBRANCH   1   2
BRANCH   1   7
ATOM      7  C   UNL d   1       0.347   0.259   0.407  0.00  0.00     0.178 C 
BRANCH   7   8
ATOM      8  C   UNL d   1       1.861   0.258   0.166  0.00  0.00     0.159 C 
BRANCH   8   9
ATOM      9  C   UNL d   1       2.513   1.459   0.834  0.00  0.00     0.119 C 
ATOM     10 BR   UNL d   1       4.345   1.649   0.235  0.00  0.00    -0.094 Br
ENDBRANCH   8   9
BRANCH   8  11
ATOM     11  O   UNL d   1       2.433  -0.908   0.680  0.00  0.00    -0.392 OA
ATOM     12  HO  UNL d   1       3.371  -0.909   0.531  1.00  0.00     0.210 HD
ENDBRANCH   8  11
ENDBRANCH   7   8
BRANCH   7  13
ATOM     13  O   UNL d   1      -0.178   1.502   0.042  0.00  0.00    -0.390 OA
ATOM     14  HO  UNL d   1       0.254   2.192   0.532  1.00  0.00     0.210 HD
ENDBRANCH   7  13
ENDBRANCH   1   7
BRANCH   1  15
ATOM     15  O   UNL d   1       0.095  -2.112   0.035  0.00  0.00    -0.390 OA
ATOM     16  HO  UNL d   1       1.042  -2.130  -0.033  1.00  0.00     0.210 HD
ENDBRANCH   1  15
TORSDOF 9
