REMARK  6 active torsions:
REMARK  status: ('A' for Active; 'I' for Inactive)
REMARK    1  A    between atoms: C_2  and  C_3 
REMARK    2  A    between atoms: C_2  and  C_6 
REMARK    3  A    between atoms: C_3  and  N_18 
REMARK    4  A    between atoms: C_6  and  C_8 
REMARK    5  A    between atoms: C_6  and  O_16 
REMARK    6  A    between atoms: C_8  and  C_9 
ROOT
ATOM      1  C   UNL d   1       0.946  -1.045   0.199  0.00  0.00     0.063 C 
ATOM      2  C   UNL d   1       0.395  -2.439   0.465  0.00  0.00     0.046 C 
ENDROOT
BRANCH   1   3
ATOM      3  C   UNL d   1       2.452  -1.148  -0.118  0.00  0.00     0.044 C 
ATOM      4  C   UNL d   1       3.261  -1.738   1.033  0.00  0.00     0.015 C 
BRANCH   3   5
ATOM      5  C   UNL d   1       3.085   0.161  -0.608  0.00  0.00     0.278 C 
BRANCH   5   6
ATOM      6  N   UNL d   1       3.086   1.179   0.433  0.00  0.00     0.080 N 
ATOM      7  C   UNL d   1       4.470   1.565   0.640  0.00  0.00     0.309 C 
ATOM      8  C   UNL d   1       2.411   2.341  -0.117  0.00  0.00     0.309 C 
ENDBRANCH   5   6
ENDBRANCH   3   5
ENDBRANCH   1   3
BRANCH   1   9
ATOM      9  C   UNL d   1       0.206  -0.436  -1.002  0.00  0.00     0.076 C 
BRANCH   9  10
ATOM     10  C   UNL d   1      -1.233  -0.125  -0.727  0.00  0.00    -0.055 A 
ATOM     11  C   UNL d   1      -1.591   1.120  -0.197  0.00  0.00     0.009 A 
ATOM     12  C   UNL d   1      -2.933   1.410   0.066  0.00  0.00     0.024 A 
ATOM     13  C   UNL d   1      -3.919   0.456  -0.202  0.00  0.00     0.034 A 
ATOM     14  C   UNL d   1      -3.564  -0.788  -0.732  0.00  0.00     0.024 A 
ATOM     15 CL   UNL d   1      -5.599   0.819   0.127  0.00  0.00    -0.084 Cl
ATOM     16  C   UNL d   1      -2.222  -1.078  -0.995  0.00  0.00     0.009 A 
ENDBRANCH   9  10
ENDBRANCH   1   9
BRANCH   1  17
ATOM     17  O   UNL d   1       0.750  -0.254   1.337  0.00  0.00    -0.390 OA
ATOM     18  HO  UNL d   1      -0.178  -0.191   1.532  1.00  0.00     0.210 HD
ENDBRANCH   1  17
TORSDOF 6
