REMARK  5 active torsions:
REMARK  status: ('A' for Active; 'I' for Inactive)
REMARK    1  A    between atoms: C_2  and  N_18 
REMARK    2  A    between atoms: C_5  and  C_6 
REMARK    3  A    between atoms: C_5  and  N_18 
REMARK    4  A    between atoms: C_6  and  C_7 
REMARK    5  A    between atoms: C_6  and  O_16 
ROOT
ATOM      1  C   UNL d   1       0.676  -0.722   0.960  0.00  0.00     0.177 C 
ENDROOT
BRANCH   1   2
ATOM      2  C   UNL d   1       1.677   0.146   0.216  0.00  0.00     0.269 C 
BRANCH   2   3
ATOM      3  N   UNL d   1       3.038  -0.231   0.593  0.00  0.00    -0.065 N 
ATOM      4  HN2 UNL d   1       3.209  -1.224   0.436  1.00  0.00     0.278 HD
ATOM      5  HN1 UNL d   1       3.166  -0.207   1.605  1.00  0.00     0.278 HD
BRANCH   3   6
ATOM      6  C   UNL d   1       4.032   0.601  -0.094  0.00  0.00     0.115 C 
ATOM      7  C   UNL d   1       3.871   2.068   0.276  0.00  0.00     0.045 C 
ATOM      8  C   UNL d   1       5.412   0.157   0.342  0.00  0.00     0.045 C 
ATOM      9  C   UNL d   1       3.939   0.434  -1.604  0.00  0.00     0.045 C 
ENDBRANCH   3   6
ENDBRANCH   2   3
ENDBRANCH   1   2
BRANCH   1  10
ATOM     10  C   UNL d   1      -0.704  -0.503   0.428  0.00  0.00    -0.025 A 
ATOM     11  C   UNL d   1      -1.373   0.711   0.630  0.00  0.00     0.035 A 
ATOM     12  C   UNL d   1      -2.658   0.903   0.116  0.00  0.00     0.060 A 
ATOM     13  C   UNL d   1      -3.283  -0.123  -0.611  0.00  0.00     0.089 A 
ATOM     14 CL   UNL d   1      -3.460   2.440   0.394  0.00  0.00    -0.082 Cl
ATOM     15  C   UNL d   1      -2.611  -1.339  -0.817  0.00  0.00     0.060 A 
ATOM     16  N   UNL d   1      -4.594   0.068  -1.138  0.00  0.00    -0.099 NA
ATOM     17  C   UNL d   1      -1.325  -1.522  -0.298  0.00  0.00     0.035 A 
ATOM     18 CL   UNL d   1      -3.354  -2.647  -1.721  0.00  0.00    -0.082 Cl
ENDBRANCH   1  10
BRANCH   1  19
ATOM     19  O   UNL d   1       0.716  -0.440   2.328  0.00  0.00    -0.389 OA
ATOM     20  HO  UNL d   1       0.090  -0.983   2.792  1.00  0.00     0.210 HD
ENDBRANCH   1  19
TORSDOF 5
