REMARK  9 active torsions:
REMARK  status: ('A' for Active; 'I' for Inactive)
REMARK    1  A    between atoms: C_1  and  C_2 
REMARK    2  A    between atoms: C_1  and  C_8 
REMARK    3  A    between atoms: C_2  and  C_3 
REMARK    4  A    between atoms: C_3  and  C_4 
REMARK    5  A    between atoms: C_4  and  C_5 
REMARK    6  A    between atoms: C_5  and  C_6 
REMARK    7  A    between atoms: C_8  and  C_9 
REMARK    8  A    between atoms: C_9  and  C_10 
REMARK    9  A    between atoms: C_10  and  C_11 
ROOT
ATOM      1  C   UNL d   1      -0.227  -1.119  -1.073  0.00  0.00     0.000 C 
ENDROOT
BRANCH   1   2
ATOM      2  C   UNL d   1      -0.615  -0.608   0.305  0.00  0.00     0.000 C 
BRANCH   2   3
ATOM      3  C   UNL d   1      -1.982  -1.143   0.703  0.00  0.00     0.000 C 
BRANCH   3   4
ATOM      4  C   UNL d   1      -3.098  -0.440  -0.062  0.00  0.00     0.000 C 
BRANCH   4   5
ATOM      5  C   UNL d   1      -3.297   0.987   0.434  0.00  0.00    -0.000 C 
BRANCH   5   6
ATOM      6  C   UNL d   1      -3.966   1.011   1.800  0.00  0.00    -0.005 C 
ATOM      7  C   UNL d   1      -5.440   0.673   1.674  0.00  0.00     0.005 C 
ENDBRANCH   5   6
ENDBRANCH   4   5
ENDBRANCH   3   4
ENDBRANCH   2   3
ENDBRANCH   1   2
BRANCH   1   8
ATOM      8  C   UNL d   1       1.133  -0.578  -1.473  0.00  0.00     0.001 C 
BRANCH   8   9
ATOM      9  C   UNL d   1       2.236  -1.306  -0.721  0.00  0.00     0.010 C 
BRANCH   9  10
ATOM     10  C   UNL d   1       3.596  -0.734  -1.085  0.00  0.00     0.113 C 
BRANCH  10  11
ATOM     11  C   UNL d   1       3.820   0.573  -0.403  0.00  0.00     0.172 C 
ATOM     12  O   UNL d   1       4.208   0.604   0.929  0.00  0.00    -0.648 OA
ATOM     13  O   UNL d   1       3.632   1.649  -1.028  0.00  0.00    -0.648 OA
ENDBRANCH  10  11
ENDBRANCH   9  10
ENDBRANCH   8   9
ENDBRANCH   1   8
TORSDOF 9
