REMARK  3 active torsions:
REMARK  status: ('A' for Active; 'I' for Inactive)
REMARK    1  A    between atoms: C_2  and  C_3 
REMARK    2  A    between atoms: C_4  and  C_3 
REMARK    3  A    between atoms: C_16  and  N_20 
ROOT
ATOM      1  C   UNL d   1       2.510   0.127  -0.627  0.00  0.00     0.175 A 
ATOM      2  C   UNL d   1       1.438  -0.924  -0.684  0.00  0.00     0.257 A 
ATOM      3  O   UNL d   1       1.655  -2.164  -0.733  0.00  0.00    -0.270 OA
ATOM      4  N   UNL d   1       0.135  -0.350  -0.683  0.00  0.00    -0.197 N 
ATOM      5  C   UNL d   1      -1.114  -0.972  -0.366  0.00  0.00     0.088 A 
ATOM      6  C   UNL d   1      -1.273  -2.362  -0.336  0.00  0.00     0.040 A 
ATOM      7  C   UNL d   1      -2.518  -2.911  -0.014  0.00  0.00    -0.060 A 
ATOM      8  C   UNL d   1      -3.600  -2.073   0.279  0.00  0.00     0.009 A 
ATOM      9  C   UNL d   1      -3.441  -0.684   0.251  0.00  0.00     0.033 A 
ATOM     10  C   UNL d   1      -2.199  -0.129  -0.069  0.00  0.00     0.078 A 
ATOM     11  N   UNL d   1      -2.031   1.300  -0.099  0.00  0.00    -0.188 N 
ATOM     12  HN  UNL d   1      -2.836   1.892   0.102  1.00  0.00     0.184 HD
ATOM     13  C   UNL d   1      -0.887   1.869  -0.374  0.00  0.00     0.704 A 
ATOM     14  N   UNL d   1       0.257   1.036  -0.650  0.00  0.00    -0.041 N 
ATOM     15  C   UNL d   1       1.645   1.355  -0.576  0.00  0.00     0.273 A 
ATOM     16  O   UNL d   1       2.090   2.523  -0.424  0.00  0.00    -0.270 OA
ATOM     17  C   UNL d   1      -2.692  -4.386   0.018  0.00  0.00     0.048 C 
ENDROOT
BRANCH   1  18
ATOM     18  C   UNL d   1       3.297   0.002   0.671  0.00  0.00     0.023 C 
BRANCH  18  19
ATOM     19  C   UNL d   1       4.687  -0.554   0.410  0.00  0.00    -0.003 C 
ATOM     20  C   UNL d   1       4.638  -2.059   0.232  0.00  0.00     0.005 C 
ENDBRANCH  18  19
ENDBRANCH   1  18
BRANCH  13  21
ATOM     21  N   UNL d   1      -0.808   3.298  -0.449  0.00  0.00    -0.224 N 
ATOM     22  C   UNL d   1      -0.128   3.936  -1.564  0.00  0.00     0.168 C 
ATOM     23  C   UNL d   1      -1.661   4.123   0.389  0.00  0.00     0.168 C 
ENDBRANCH  13  21
TORSDOF 3
