REMARK  12 active torsions:
REMARK  status: ('A' for Active; 'I' for Inactive)
REMARK    1  A    between atoms: C_3  and  O_58 
REMARK    2  A    between atoms: C_4  and  O_56 
REMARK    3  A    between atoms: C_6  and  O_8 
REMARK    4  A    between atoms: C_9  and  O_8 
REMARK    5  A    between atoms: C_12  and  O_17 
REMARK    6  A    between atoms: C_14  and  O_15 
REMARK    7  A    between atoms: C_18  and  O_17 
REMARK    8  A    between atoms: C_21  and  O_26 
REMARK    9  A    between atoms: C_23  and  O_24 
REMARK   10  A    between atoms: C_27  and  O_26 
REMARK   11  A    between atoms: C_40  and  O_50 
REMARK   12  A    between atoms: C_43  and  C_44 
ROOT
ATOM      1  C   UNL d   1      -3.188   0.251   0.273  0.00  0.00     0.182 C 
ATOM      2  C   UNL d   1      -2.155  -0.365   1.251  0.00  0.00     0.152 C 
ATOM      3  O   UNL d   1      -0.881   0.198   1.070  0.00  0.00    -0.354 OA
ATOM      4  C   UNL d   1      -0.419  -0.289  -0.167  0.00  0.00     0.263 C 
ATOM      5  C   UNL d   1      -1.227   0.288  -1.345  0.00  0.00     0.095 C 
ATOM      6  C   UNL d   1      -2.502   1.002  -0.884  0.00  0.00     0.154 C 
ATOM      7  C   UNL d   1      -2.565  -0.283   2.713  0.00  0.00     0.042 C 
ENDROOT
BRANCH   4   8
ATOM      8  O   UNL d   1       0.931   0.031  -0.323  0.00  0.00    -0.356 OA
BRANCH   8   9
ATOM      9  C   UNL d   1       1.577  -1.196  -0.503  0.00  0.00     0.125 C 
ATOM     10  C   UNL d   1       2.204  -1.258  -1.909  0.00  0.00     0.037 C 
ATOM     11  C   UNL d   1       3.727  -1.122  -1.869  0.00  0.00    -0.004 C 
ATOM     12  C   UNL d   1       4.220  -0.048  -0.868  0.00  0.00    -0.036 C 
ATOM     13  C   UNL d   1       4.378  -1.006  -3.252  0.00  0.00     0.006 C 
ATOM     14  C   UNL d   1       3.787  -0.440   0.559  0.00  0.00     0.012 C 
ATOM     15  C   UNL d   1       5.750   0.112  -0.987  0.00  0.00     0.001 C 
ATOM     16  C   UNL d   1       3.608   1.308  -1.200  0.00  0.00     0.016 C 
ATOM     17  C   UNL d   1       2.603  -1.425   0.619  0.00  0.00     0.033 C 
ATOM     18  C   UNL d   1       6.448  -1.048  -1.734  0.00  0.00     0.025 C 
ATOM     19  C   UNL d   1       6.521   0.653   0.238  0.00  0.00     0.007 C 
ATOM     20  C   UNL d   1       5.915  -1.134  -3.175  0.00  0.00     0.008 C 
ATOM     21  C   UNL d   1       7.982  -0.976  -1.584  0.00  0.00     0.070 C 
ATOM     22  C   UNL d   1       8.471   0.476  -1.441  0.00  0.00    -0.005 C 
ATOM     23  C   UNL d   1       8.829  -1.528  -2.716  0.00  0.00     0.040 C 
ATOM     24  C   UNL d   1       7.970   1.081  -0.111  0.00  0.00     0.013 C 
ATOM     25  C   UNL d   1       9.984   0.379  -1.656  0.00  0.00     0.028 C 
ATOM     26  C   UNL d   1       7.959   1.373  -2.574  0.00  0.00     0.019 C 
ATOM     27  C   UNL d   1      10.203  -0.883  -2.507  0.00  0.00     0.013 C 
BRANCH  21  28
ATOM     28  O   UNL d   1       8.303  -1.706  -0.433  0.00  0.00    -0.389 OA
ATOM     29  HO  UNL d   1       9.247  -1.662  -0.341  1.00  0.00     0.210 HD
ENDBRANCH  21  28
BRANCH  25  30
ATOM     30  C   UNL d   1      10.829   0.376  -0.412  0.00  0.00    -0.045 A 
ATOM     31  C   UNL d   1      11.793   1.480  -0.086  0.00  0.00     0.213 A 
ATOM     32  O   UNL d   1      12.357   1.059   1.148  0.00  0.00    -0.314 OA
ATOM     33  C   UNL d   1      11.793  -0.150   1.498  0.00  0.00     0.283 A 
ATOM     34  C   UNL d   1      10.831  -0.583   0.511  0.00  0.00     0.087 A 
ATOM     35  O   UNL d   1      12.085  -0.781   2.546  0.00  0.00    -0.260 OA
ENDBRANCH  25  30
ENDBRANCH   8   9
ENDBRANCH   4   8
BRANCH   6  36
ATOM     36  O   UNL d   1      -2.183   2.307  -0.499  0.00  0.00    -0.393 OA
ATOM     37  HO  UNL d   1      -1.760   2.770  -1.212  1.00  0.00     0.210 HD
ENDBRANCH   6  36
BRANCH   1  38
ATOM     38  O   UNL d   1      -4.112   1.086   0.918  0.00  0.00    -0.351 OA
BRANCH  38  39
ATOM     39  C   UNL d   1      -5.357   0.500   0.680  0.00  0.00     0.263 C 
ATOM     40  O   UNL d   1      -6.015   0.271   1.901  0.00  0.00    -0.354 OA
ATOM     41  C   UNL d   1      -7.068  -0.619   1.617  0.00  0.00     0.152 C 
ATOM     42  C   UNL d   1      -8.114   0.005   0.649  0.00  0.00     0.182 C 
ATOM     43  C   UNL d   1      -7.667  -1.133   2.918  0.00  0.00     0.042 C 
ATOM     44  C   UNL d   1      -7.681   1.391   0.142  0.00  0.00     0.154 C 
ATOM     45  C   UNL d   1      -6.195   1.411  -0.232  0.00  0.00     0.095 C 
BRANCH  42  46
ATOM     46  O   UNL d   1      -9.402   0.063   1.197  0.00  0.00    -0.351 OA
BRANCH  46  47
ATOM     47  C   UNL d   1     -10.176  -0.796   0.406  0.00  0.00     0.263 C 
ATOM     48  C   UNL d   1     -11.036  -1.731   1.266  0.00  0.00     0.095 C 
ATOM     49  C   UNL d   1     -12.194  -0.985   1.913  0.00  0.00     0.154 C 
ATOM     50  C   UNL d   1     -12.936  -0.183   0.850  0.00  0.00     0.175 C 
ATOM     51  C   UNL d   1     -11.979   0.669   0.001  0.00  0.00     0.151 C 
ATOM     52  C   UNL d   1     -11.494   1.946   0.682  0.00  0.00     0.042 C 
ATOM     53  O   UNL d   1     -10.922  -0.084  -0.573  0.00  0.00    -0.354 OA
BRANCH  49  54
ATOM     54  O   UNL d   1     -11.726  -0.155   2.936  0.00  0.00    -0.393 OA
ATOM     55  HO  UNL d   1     -11.264  -0.655   3.598  1.00  0.00     0.210 HD
ENDBRANCH  49  54
BRANCH  50  56
ATOM     56  O   UNL d   1     -13.943   0.599   1.421  0.00  0.00    -0.390 OA
ATOM     57  HO  UNL d   1     -14.534   0.072   1.946  1.00  0.00     0.210 HD
ENDBRANCH  50  56
ENDBRANCH  46  47
ENDBRANCH  42  46
BRANCH  44  58
ATOM     58  O   UNL d   1      -7.923   2.361   1.118  0.00  0.00    -0.393 OA
ATOM     59  HO  UNL d   1      -7.656   3.218   0.805  1.00  0.00     0.210 HD
ENDBRANCH  44  58
ENDBRANCH  38  39
ENDBRANCH   1  38
TORSDOF 12
