REMARK  2 active torsions:
REMARK  status: ('A' for Active; 'I' for Inactive)
REMARK    1  A    between atoms: O_1  and  C_3 
REMARK    2  A    between atoms: C_13  and  O_14 
ROOT
ATOM      1  C   UNL d   1      -1.665  -3.894  -0.044  0.00  0.00     0.101 A 
ATOM      2  C   UNL d   1      -0.422  -3.758   0.587  0.00  0.00     0.041 A 
ATOM      3  I   UNL d   1       0.707  -5.445   1.164  0.00  0.00    -0.042 I 
ATOM      4  C   UNL d   1       0.095  -2.488   0.842  0.00  0.00     0.035 A 
ATOM      5  C   UNL d   1      -0.616  -1.337   0.474  0.00  0.00     0.023 A 
ATOM      6  C   UNL d   1      -1.869  -1.474  -0.153  0.00  0.00     0.105 A 
ATOM      7  O   UNL d   1      -2.605  -0.345  -0.518  0.00  0.00    -0.307 OA
ATOM      8  C   UNL d   1      -2.170   0.957  -0.261  0.00  0.00     0.105 A 
ATOM      9  C   UNL d   1      -2.982   2.041  -0.628  0.00  0.00     0.075 A 
ATOM     10  I   UNL d   1      -4.846   1.693  -1.575  0.00  0.00    -0.039 I 
ATOM     11  C   UNL d   1      -2.561   3.353  -0.367  0.00  0.00     0.101 A 
ATOM     12  C   UNL d   1      -1.329   3.579   0.260  0.00  0.00     0.041 A 
ATOM     13  I   UNL d   1      -0.651   5.533   0.675  0.00  0.00    -0.042 I 
ATOM     14  C   UNL d   1      -0.522   2.501   0.619  0.00  0.00     0.035 A 
ATOM     15  C   UNL d   1      -0.928   1.183   0.362  0.00  0.00     0.023 A 
ATOM     16  C   UNL d   1      -0.018   0.031   0.744  0.00  0.00     0.161 A 
ATOM     17  O   UNL d   1       0.312   0.134   2.135  0.00  0.00    -0.291 OA
ATOM     18  C   UNL d   1       1.678   0.310   2.297  0.00  0.00     0.297 A 
ATOM     19  O   UNL d   1       2.243   0.429   3.415  0.00  0.00    -0.259 OA
ATOM     20  C   UNL d   1       2.325   0.332   1.005  0.00  0.00     0.074 A 
ATOM     21  C   UNL d   1       1.334   0.168   0.063  0.00  0.00     0.028 A 
ATOM     22  C   UNL d   1       1.644   0.145  -1.305  0.00  0.00     0.068 A 
ATOM     23 CL   UNL d   1       0.373  -0.066  -2.507  0.00  0.00    -0.082 Cl
ATOM     24  C   UNL d   1       2.994   0.295  -1.694  0.00  0.00     0.080 A 
ATOM     25 CL   UNL d   1       3.419   0.271  -3.406  0.00  0.00    -0.081 Cl
ATOM     26  C   UNL d   1       4.005   0.463  -0.715  0.00  0.00     0.080 A 
ATOM     27 CL   UNL d   1       5.689   0.650  -1.206  0.00  0.00    -0.081 Cl
ATOM     28  C   UNL d   1       3.669   0.483   0.655  0.00  0.00     0.074 A 
ATOM     29 CL   UNL d   1       4.902   0.691   1.897  0.00  0.00    -0.081 Cl
ATOM     30  C   UNL d   1      -2.389  -2.752  -0.415  0.00  0.00     0.075 A 
ATOM     31  I   UNL d   1      -4.272  -2.951  -1.368  0.00  0.00    -0.039 I 
ENDROOT
BRANCH  11  32
ATOM     32  O   UNL d   1      -3.364   4.429  -0.729  0.00  0.00    -0.358 OA
ATOM     33  HO  UNL d   1      -3.079   5.317  -0.552  1.00  0.00     0.217 HD
ENDBRANCH  11  32
BRANCH   1  34
ATOM     34  O   UNL d   1      -2.178  -5.160  -0.302  0.00  0.00    -0.358 OA
ATOM     35  HO  UNL d   1      -3.021  -5.252  -0.730  1.00  0.00     0.217 HD
ENDBRANCH   1  34
TORSDOF 2
