REMARK  5 active torsions:
REMARK  status: ('A' for Active; 'I' for Inactive)
REMARK    1  A    between atoms: N_2  and  O_4 
REMARK    2  A    between atoms: O_4  and  C_5 
REMARK    3  A    between atoms: C_5  and  C_6 
REMARK    4  A    between atoms: C_6  and  N_7 
REMARK       I    between atoms: N_7  and  C_9 
REMARK    5  A    between atoms: C_9  and  C_11 
ROOT
ATOM      1  N   UNL d   1       0.073   1.234  -1.034  0.00  0.00    -0.355 N 
ATOM      2  HN  UNL d   1      -0.345   0.849  -1.881  1.00  0.00     0.162 HD
ATOM      3  C   UNL d   1      -0.581   1.006   0.218  0.00  0.00     0.253 C 
ATOM      4  O   UNL d   1      -0.104   1.500   1.277  0.00  0.00    -0.268 OA
ENDROOT
BRANCH   3   5
ATOM      5  C   UNL d   1      -1.812   0.199   0.271  0.00  0.00     0.047 A 
ATOM      6  C   UNL d   1      -2.352  -0.356  -0.896  0.00  0.00     0.104 A 
ATOM      7  N   UNL d   1      -3.489  -1.101  -0.840  0.00  0.00    -0.374 N 
ATOM      8  C   UNL d   1      -4.132  -1.331   0.336  0.00  0.00     0.087 A 
ATOM      9  HN  UNL d   1      -3.868  -1.497  -1.700  1.00  0.00     0.164 HD
ATOM     10  C   UNL d   1      -3.630  -0.798   1.525  0.00  0.00     0.018 A 
ATOM     11  C   UNL d   1      -2.465  -0.030   1.488  0.00  0.00     0.020 A 
ENDBRANCH   3   5
BRANCH   1  12
ATOM     12  C   UNL d   1       1.312   1.992  -1.151  0.00  0.00     0.151 C 
BRANCH  12  13
ATOM     13  C   UNL d   1       2.481   1.183  -0.616  0.00  0.00     0.227 C 
BRANCH  13  14
ATOM     14  O   UNL d   1       2.699   0.046  -1.439  0.00  0.00    -0.220 OA
BRANCH  14  15
ATOM     15  N   UNL d   1       3.694  -0.868  -1.158  0.00  0.00     0.004 N 
ATOM     16  O   UNL d   1       3.868  -1.954  -1.982  0.00  0.00    -0.511 OA
ATOM     17  O   UNL d   1       4.437  -0.723  -0.165  0.00  0.00    -0.511 OA
ENDBRANCH  14  15
ENDBRANCH  13  14
ENDBRANCH  12  13
ENDBRANCH   1  12
TORSDOF 5
