REMARK  5 active torsions:
REMARK  status: ('A' for Active; 'I' for Inactive)
REMARK    1  A    between atoms: N_3  and  C_35 
REMARK    2  A    between atoms: C_8  and  C_9 
REMARK    3  A    between atoms: C_15  and  N_16 
REMARK    4  A    between atoms: N_16  and  C_18 
REMARK    5  A    between atoms: C_21  and  C_25 
ROOT
ATOM      1  O   UNL d   1      -5.658  -0.217  -0.188  0.00  0.00    -0.267 OA
ATOM      2  C   UNL d   1      -4.461   0.140  -0.376  0.00  0.00     0.264 A 
ATOM      3  N   UNL d   1      -3.439  -0.530   0.256  0.00  0.00    -0.293 N 
ATOM      4  C   UNL d   1      -2.136  -0.167   0.048  0.00  0.00     0.138 A 
ATOM      5  C   UNL d   1      -1.822   0.903  -0.810  0.00  0.00     0.032 A 
ATOM      6  C   UNL d   1      -2.849   1.603  -1.460  0.00  0.00    -0.027 A 
ATOM      7  C   UNL d   1      -2.509   2.786  -2.320  0.00  0.00     0.050 C 
ATOM      8  C   UNL d   1      -4.190   1.216  -1.251  0.00  0.00     0.084 A 
ATOM      9  C   UNL d   1      -0.474   1.238  -0.982  0.00  0.00     0.122 A 
ATOM     10  N   UNL d   1       0.492   0.540  -0.336  0.00  0.00    -0.201 N 
ATOM     11  HN  UNL d   1       1.471   0.794  -0.470  1.00  0.00     0.183 HD
ATOM     12  C   UNL d   1       0.178  -0.494   0.489  0.00  0.00     0.685 A 
ATOM     13  N   UNL d   1      -1.124  -0.835   0.672  0.00  0.00    -0.175 N 
ATOM     14  HN  UNL d   1      -1.351  -1.611   1.294  1.00  0.00     0.186 HD
ENDROOT
BRANCH  12  15
ATOM     15  N   UNL d   1       1.196  -1.234   1.173  0.00  0.00    -0.176 N 
ATOM     16  HN  UNL d   1       0.886  -1.995   1.776  1.00  0.00     0.186 HD
BRANCH  15  17
ATOM     17  C   UNL d   1       2.608  -1.007   1.092  0.00  0.00     0.120 A 
ATOM     18  C   UNL d   1       3.470  -1.824   1.829  0.00  0.00     0.050 A 
ATOM     19  C   UNL d   1       4.847  -1.611   1.757  0.00  0.00     0.012 A 
ATOM     20  C   UNL d   1       5.356  -0.590   0.952  0.00  0.00    -0.038 A 
ATOM     21  C   UNL d   1       4.461   0.210   0.230  0.00  0.00     0.097 A 
ATOM     22  N   UNL d   1       3.123  -0.014   0.314  0.00  0.00    -0.351 N 
ATOM     23  HN  UNL d   1       2.486   0.578  -0.220  1.00  0.00     0.166 HD
BRANCH  20  24
ATOM     24  C   UNL d   1       6.838  -0.371   0.893  0.00  0.00     0.023 C 
ATOM     25  C   UNL d   1       7.390  -0.512  -0.534  0.00  0.00     0.037 C 
ATOM     26  C   UNL d   1       7.872   0.820  -1.108  0.00  0.00     0.233 C 
ATOM     27  N   UNL d   1       6.958   1.885  -0.711  0.00  0.00    -0.075 N 
ATOM     28  C   UNL d   1       7.146   2.182   0.713  0.00  0.00     0.233 C 
ATOM     29  HN2 UNL d   1       7.057   2.715  -1.294  1.00  0.00     0.277 HD
ATOM     30  HN1 UNL d   1       5.988   1.664  -0.934  1.00  0.00     0.277 HD
ATOM     31  C   UNL d   1       7.266   0.924   1.596  0.00  0.00     0.037 C 
ENDBRANCH  20  24
ENDBRANCH  15  17
ENDBRANCH  12  15
BRANCH   3  32
ATOM     32  C   UNL d   1      -3.707  -1.655   1.169  0.00  0.00     0.095 C 
ATOM     33  C   UNL d   1      -4.562  -1.246   2.357  0.00  0.00     0.026 C 
ATOM     34  C   UNL d   1      -5.653  -2.295   2.479  0.00  0.00     0.002 C 
ATOM     35  C   UNL d   1      -5.272  -3.429   1.548  0.00  0.00     0.002 C 
ATOM     36  C   UNL d   1      -4.411  -2.804   0.476  0.00  0.00     0.026 C 
ENDBRANCH   3  32
BRANCH   8  37
ATOM     37  C   UNL d   1      -5.315   1.920  -1.923  0.00  0.00     0.161 C 
ATOM     38  C   UNL d   1      -5.256   2.272  -3.370  0.00  0.00     0.097 C 
ATOM     39  O   UNL d   1      -6.362   2.196  -1.279  0.00  0.00    -0.293 OA
ENDBRANCH   8  37
TORSDOF 5
