REMARK  7 active torsions:
REMARK  status: ('A' for Active; 'I' for Inactive)
REMARK    1  A    between atoms: C_2  and  O_3 
REMARK    2  A    between atoms: O_3  and  C_4 
REMARK    3  A    between atoms: C_11  and  C_12 
REMARK       I    between atoms: C_12  and  N_14 
REMARK    4  A    between atoms: N_14  and  C_16 
REMARK    5  A    between atoms: C_16  and  C_17 
REMARK    6  A    between atoms: N_19  and  C_20 
REMARK    7  A    between atoms: C_20  and  C_21 
ROOT
ATOM      1  C   UNL d   1      -2.337   1.001   1.313  0.00  0.00     0.254 C 
ATOM      2  O   UNL d   1      -2.415   1.342   2.526  0.00  0.00    -0.268 OA
ATOM      3  N   UNL d   1      -1.241   1.468   0.520  0.00  0.00    -0.354 N 
ATOM      4  HN  UNL d   1      -1.241   1.265  -0.479  1.00  0.00     0.162 HD
ENDROOT
BRANCH   3   5
ATOM      5  C   UNL d   1      -0.125   2.223   1.078  0.00  0.00     0.156 C 
BRANCH   5   6
ATOM      6  C   UNL d   1       0.960   1.292   1.612  0.00  0.00     0.167 C 
ATOM      7  C   UNL d   1       1.536   0.422   0.484  0.00  0.00     0.306 C 
ATOM      8  N   UNL d   1       2.586  -0.482   0.979  0.00  0.00     0.097 N 
ATOM      9  C   UNL d   1       2.174  -1.149   2.223  0.00  0.00     0.299 C 
ATOM     10  C   UNL d   1       1.562  -0.157   3.221  0.00  0.00     0.198 C 
ATOM     11  O   UNL d   1       0.454   0.479   2.640  0.00  0.00    -0.381 OA
BRANCH   8  12
ATOM     12  C   UNL d   1       3.805   0.281   1.231  0.00  0.00     0.311 C 
BRANCH  12  13
ATOM     13  C   UNL d   1       4.685   0.257   0.029  0.00  0.00    -0.030 A 
ATOM     14  C   UNL d   1       5.549  -0.823  -0.185  0.00  0.00     0.012 A 
ATOM     15  C   UNL d   1       6.359  -0.856  -1.325  0.00  0.00     0.043 A 
ATOM     16  C   UNL d   1       6.304   0.189  -2.252  0.00  0.00     0.116 A 
ATOM     17  F   UNL d   1       7.089   0.157  -3.356  0.00  0.00    -0.206 F 
ATOM     18  C   UNL d   1       5.435   1.265  -2.043  0.00  0.00     0.043 A 
ATOM     19  C   UNL d   1       4.625   1.298  -0.904  0.00  0.00     0.012 A 
ENDBRANCH  12  13
ENDBRANCH   8  12
ENDBRANCH   5   6
ENDBRANCH   3   5
BRANCH   1  20
ATOM     20  C   UNL d   1      -3.390   0.138   0.726  0.00  0.00     0.067 A 
ATOM     21  C   UNL d   1      -4.524  -0.149   1.501  0.00  0.00     0.045 A 
ATOM     22  C   UNL d   1      -5.553  -0.953   1.009  0.00  0.00     0.059 A 
ATOM     23  C   UNL d   1      -5.460  -1.487  -0.282  0.00  0.00     0.070 A 
ATOM     24 CL   UNL d   1      -6.947  -1.272   2.028  0.00  0.00    -0.082 Cl
ATOM     25  C   UNL d   1      -4.336  -1.216  -1.063  0.00  0.00     0.066 A 
ATOM     26  N   UNL d   1      -6.497  -2.308  -0.807  0.00  0.00    -0.101 NA
ATOM     27  C   UNL d   1      -3.294  -0.409  -0.577  0.00  0.00     0.086 A 
BRANCH  27  28
ATOM     28  O   UNL d   1      -2.165  -0.161  -1.370  0.00  0.00    -0.350 OA
BRANCH  28  29
ATOM     29  C   UNL d   1      -2.022  -0.633  -2.705  0.00  0.00     0.171 C 
ATOM     30  C   UNL d   1      -2.817   0.242  -3.656  0.00  0.00     0.034 C 
ENDBRANCH  28  29
ENDBRANCH  27  28
ENDBRANCH   1  20
TORSDOF 7
