REMARK  10 active torsions:
REMARK  status: ('A' for Active; 'I' for Inactive)
REMARK    1  A    between atoms: C_2  and  C_3 
REMARK    2  A    between atoms: C_2  and  N_34 
REMARK    3  A    between atoms: C_6  and  N_30 
REMARK    4  A    between atoms: C_7  and  O_9 
REMARK    5  A    between atoms: C_10  and  O_9 
REMARK    6  A    between atoms: C_11  and  N_26 
REMARK    7  A    between atoms: C_12  and  O_21 
REMARK    8  A    between atoms: C_13  and  O_19 
REMARK    9  A    between atoms: C_14  and  N_23 
REMARK   10  A    between atoms: C_15  and  O_16 
ROOT
ATOM      1  C   UNL d   1      -0.454  -0.553   0.179  0.00  0.00     0.188 C 
ATOM      2  C   UNL d   1      -1.410  -1.259  -0.795  0.00  0.00     0.246 C 
ATOM      3  C   UNL d   1      -2.868  -0.889  -0.488  0.00  0.00     0.182 C 
ATOM      4  C   UNL d   1      -3.109   0.627  -0.449  0.00  0.00     0.184 C 
ATOM      5  C   UNL d   1      -2.137   1.289   0.543  0.00  0.00     0.247 C 
ATOM      6  C   UNL d   1      -0.670   0.966   0.234  0.00  0.00     0.182 C 
ENDROOT
BRANCH   1   7
ATOM      7  O   UNL d   1       0.878  -0.852  -0.124  0.00  0.00    -0.349 OA
BRANCH   7   8
ATOM      8  C   UNL d   1       1.362  -1.546   0.997  0.00  0.00     0.291 C 
ATOM      9  C   UNL d   1       2.144  -2.813   0.604  0.00  0.00     0.238 C 
ATOM     10  C   UNL d   1       3.636  -2.542   0.419  0.00  0.00     0.040 C 
ATOM     11  C   UNL d   1       3.881  -1.086   0.063  0.00  0.00     0.036 C 
ATOM     12  C   UNL d   1       3.275  -0.165   1.142  0.00  0.00     0.154 C 
ATOM     13  O   UNL d   1       2.140  -0.698   1.825  0.00  0.00    -0.352 OA
BRANCH   9  14
ATOM     14  N   UNL d   1       1.591  -3.425  -0.593  0.00  0.00    -0.070 N 
ATOM     15  HN3 UNL d   1       1.776  -2.867  -1.427  1.00  0.00     0.274 HD
ATOM     16  HN2 UNL d   1       2.100  -4.268  -0.860  1.00  0.00     0.274 HD
ATOM     17  HN1 UNL d   1       0.595  -3.606  -0.470  1.00  0.00     0.274 HD
ENDBRANCH   9  14
BRANCH  12  18
ATOM     18  C   UNL d   1       2.993   1.236   0.598  0.00  0.00     0.208 C 
ATOM     19  C   UNL d   1       4.279   1.908   0.154  0.00  0.00     0.042 C 
BRANCH  18  20
ATOM     20  N   UNL d   1       2.364   2.056   1.620  0.00  0.00    -0.073 N 
ATOM     21  HN3 UNL d   1       2.989   2.253   2.401  1.00  0.00     0.274 HD
ATOM     22  HN2 UNL d   1       2.215   3.017   1.311  1.00  0.00     0.274 HD
ATOM     23  HN1 UNL d   1       1.499   1.604   1.918  1.00  0.00     0.274 HD
ENDBRANCH  18  20
ENDBRANCH  12  18
ENDBRANCH   7   8
ENDBRANCH   1   7
BRANCH   6  24
ATOM     24  O   UNL d   1      -0.259   1.576  -0.957  0.00  0.00    -0.391 OA
ATOM     25  HO  UNL d   1      -0.392   2.516  -0.923  1.00  0.00     0.210 HD
ENDBRANCH   6  24
BRANCH   2  26
ATOM     26  N   UNL d   1      -1.069  -0.962  -2.180  0.00  0.00    -0.070 N 
ATOM     27  HN3 UNL d   1      -1.036   0.043  -2.350  1.00  0.00     0.274 HD
ATOM     28  HN2 UNL d   1      -0.095  -1.187  -2.382  1.00  0.00     0.274 HD
ATOM     29  HN1 UNL d   1      -1.703  -1.431  -2.826  1.00  0.00     0.274 HD
ENDBRANCH   2  26
BRANCH   5  30
ATOM     30  N   UNL d   1      -2.346   2.728   0.603  0.00  0.00    -0.070 N 
ATOM     31  C   UNL d   1      -3.244   2.985   1.716  0.00  0.00     0.267 C 
ATOM     32  HN2 UNL d   1      -1.476   3.257   0.661  1.00  0.00     0.277 HD
ATOM     33  HN1 UNL d   1      -2.679   3.121  -0.278  1.00  0.00     0.277 HD
ENDBRANCH   5  30
BRANCH   3  34
ATOM     34  O   UNL d   1      -3.739  -1.507  -1.389  0.00  0.00    -0.391 OA
ATOM     35  HO  UNL d   1      -4.641  -1.278  -1.199  1.00  0.00     0.210 HD
ENDBRANCH   3  34
BRANCH   4  36
ATOM     36  O   UNL d   1      -2.991   1.190  -1.726  0.00  0.00    -0.386 OA
ATOM     37  C   UNL d   1      -4.248   1.734  -1.996  0.00  0.00     0.202 C 
ENDBRANCH   4  36
TORSDOF 10
