REMARK  8 active torsions:
REMARK  status: ('A' for Active; 'I' for Inactive)
REMARK    1  A    between atoms: C_4  and  N_2 
REMARK    2  A    between atoms: C_6  and  O_7 
REMARK    3  A    between atoms: C_14  and  O_15 
REMARK    4  A    between atoms: C_21  and  O_23 
REMARK    5  A    between atoms: C_25  and  O_26 
REMARK    6  A    between atoms: C_28  and  O_29 
REMARK    7  A    between atoms: C_33  and  C_34 
REMARK    8  A    between atoms: C_37  and  O_38 
ROOT
ATOM      1  C   UNL d   1      -2.011  -1.097  -0.712  0.00  0.00     0.289 C 
ATOM      2  C   UNL d   1      -1.099  -0.502  -1.826  0.00  0.00     0.108 C 
ATOM      3  C   UNL d   1       0.255  -1.210  -1.809  0.00  0.00     0.162 C 
ATOM      4  C   UNL d   1       1.028  -0.832  -0.536  0.00  0.00     0.004 C 
ATOM      5  C   UNL d   1       0.988   0.638  -0.161  0.00  0.00     0.056 C 
ATOM      6  C   UNL d   1       1.909   1.067   0.929  0.00  0.00     0.198 C 
ATOM      7  O   UNL d   1       1.982   2.278   1.269  0.00  0.00    -0.286 OA
ATOM      8  C   UNL d   1       2.766   0.059   1.606  0.00  0.00     0.058 A 
ATOM      9  C   UNL d   1       3.360   0.318   2.861  0.00  0.00     0.080 A 
ATOM     10  C   UNL d   1       4.188  -0.638   3.455  0.00  0.00     0.037 A 
ATOM     11  C   UNL d   1       4.428  -1.857   2.824  0.00  0.00     0.003 A 
ATOM     12  C   UNL d   1       3.834  -2.130   1.595  0.00  0.00     0.012 A 
ATOM     13  C   UNL d   1       2.986  -1.193   0.983  0.00  0.00    -0.003 A 
ATOM     14  C   UNL d   1       2.419  -1.485  -0.389  0.00  0.00     0.109 C 
ATOM     15  C   UNL d   1       3.395  -0.958  -1.427  0.00  0.00     0.056 C 
ATOM     16  C   UNL d   1       0.054   1.470  -0.690  0.00  0.00     0.101 C 
ATOM     17  C   UNL d   1      -0.920   1.028  -1.769  0.00  0.00     0.180 C 
ATOM     18  C   UNL d   1      -2.267   1.656  -1.532  0.00  0.00     0.208 C 
ATOM     19  O   UNL d   1      -2.638   2.639  -2.232  0.00  0.00    -0.288 OA
ATOM     20  C   UNL d   1      -3.134   1.139  -0.448  0.00  0.00     0.109 C 
ATOM     21  C   UNL d   1      -2.958  -0.135  -0.029  0.00  0.00     0.096 C 
ENDROOT
BRANCH   1  22
ATOM     22  N   UNL d   1      -2.739  -2.331  -1.071  0.00  0.00     0.091 N 
ATOM     23  C   UNL d   1      -2.343  -3.349  -0.110  0.00  0.00     0.310 C 
ATOM     24  C   UNL d   1      -2.415  -2.859  -2.394  0.00  0.00     0.310 C 
ENDBRANCH   1  22
BRANCH  21  25
ATOM     25  O   UNL d   1      -3.652  -0.622   1.075  0.00  0.00    -0.362 OA
ATOM     26  HO  UNL d   1      -3.529  -1.517   1.369  1.00  0.00     0.217 HD
ENDBRANCH  21  25
BRANCH   3  27
ATOM     27  O   UNL d   1       0.978  -0.903  -2.964  0.00  0.00    -0.390 OA
ATOM     28  HO  UNL d   1       1.820  -1.343  -2.953  1.00  0.00     0.210 HD
ENDBRANCH   3  27
BRANCH  17  29
ATOM     29  O   UNL d   1      -0.429   1.462  -3.003  0.00  0.00    -0.374 OA
ATOM     30  HO  UNL d   1      -1.038   1.186  -3.677  1.00  0.00     0.211 HD
ENDBRANCH  17  29
BRANCH  20  31
ATOM     31  C   UNL d   1      -4.133   2.051   0.181  0.00  0.00     0.271 C 
ATOM     32  N   UNL d   1      -5.141   1.562   1.065  0.00  0.00    -0.057 NA
ATOM     33  O   UNL d   1      -4.108   3.283  -0.074  0.00  0.00    -0.271 OA
ENDBRANCH  20  31
BRANCH  16  34
ATOM     34  O   UNL d   1      -0.000   2.804  -0.289  0.00  0.00    -0.360 OA
ATOM     35  HO  UNL d   1      -0.653   3.386  -0.659  1.00  0.00     0.217 HD
ENDBRANCH  16  34
BRANCH  14  36
ATOM     36  O   UNL d   1       2.284  -2.865  -0.563  0.00  0.00    -0.381 OA
ATOM     37  HO  UNL d   1       1.928  -3.048  -1.424  1.00  0.00     0.211 HD
ENDBRANCH  14  36
BRANCH   9  38
ATOM     38  O   UNL d   1       3.134   1.513   3.534  0.00  0.00    -0.360 OA
ATOM     39  HO  UNL d   1       3.533   1.687   4.378  1.00  0.00     0.217 HD
ENDBRANCH   9  38
TORSDOF 8
