REMARK  2 active torsions:
REMARK  status: ('A' for Active; 'I' for Inactive)
REMARK       I    between atoms: N_4  and  C_5 
REMARK    1  A    between atoms: C_5  and  C_7 
REMARK    2  A    between atoms: N_13  and  C_15 
ROOT
ATOM      1  C   UNL d   1      -4.191  -1.392  -0.935  0.00  0.00     0.226 C 
ATOM      2  C   UNL d   1      -4.501  -0.471  -2.032  0.00  0.00     0.068 C 
ATOM      3  N   UNL d   1      -4.746   0.256  -2.898  0.00  0.00    -0.197 NA
ENDROOT
BRANCH   1   4
ATOM      4  C   UNL d   1      -2.835  -1.097  -0.394  0.00  0.00     0.233 C 
ATOM      5  N   UNL d   1      -2.661  -0.079   0.590  0.00  0.00    -0.339 N 
ATOM      6  C   UNL d   1      -3.512   0.865   1.339  0.00  0.00     0.133 A 
ATOM      7  C   UNL d   1      -1.561   0.533   1.350  0.00  0.00     0.057 A 
ATOM      8  C   UNL d   1      -2.409   1.512   2.114  0.00  0.00     0.030 A 
ATOM      9  C   UNL d   1      -2.270   2.958   1.658  0.00  0.00     0.014 C 
ATOM     10  C   UNL d   1      -0.885  -0.487   2.259  0.00  0.00     0.053 C 
ATOM     11  C   UNL d   1      -0.487   1.097   0.426  0.00  0.00     0.156 C 
ATOM     12  C   UNL d   1       0.470  -0.771   1.635  0.00  0.00     0.127 C 
ATOM     13  N   UNL d   1       0.664   0.233   0.603  0.00  0.00    -0.364 N 
ATOM     14  O   UNL d   1      -1.837  -1.730  -0.828  0.00  0.00    -0.272 OA
BRANCH  13  15
ATOM     15  C   UNL d   1       1.853   0.369  -0.195  0.00  0.00     0.118 A 
ATOM     16  N   UNL d   1       1.924   1.346  -1.150  0.00  0.00    -0.338 N 
ATOM     17  C   UNL d   1       3.036   1.509  -1.932  0.00  0.00     0.183 A 
ATOM     18  HN  UNL d   1       1.128   1.969  -1.284  1.00  0.00     0.168 HD
ATOM     19  N   UNL d   1       4.117   0.691  -1.777  0.00  0.00    -0.338 N 
ATOM     20  C   UNL d   1       4.061  -0.280  -0.835  0.00  0.00     0.120 A 
ATOM     21  HN  UNL d   1       4.948   0.809  -2.357  1.00  0.00     0.168 HD
ATOM     22  N   UNL d   1       5.035  -1.159  -0.563  0.00  0.00    -0.351 N 
ATOM     23  C   UNL d   1       2.969  -0.463  -0.046  0.00  0.00     0.053 A 
ATOM     24  C   UNL d   1       4.528  -1.921   0.438  0.00  0.00     0.091 A 
ATOM     25  HN  UNL d   1       5.949  -1.236  -1.007  1.00  0.00     0.166 HD
ATOM     26  C   UNL d   1       3.238  -1.521   0.793  0.00  0.00     0.036 A 
ENDBRANCH  13  15
ENDBRANCH   1   4
TORSDOF 2
