REMARK  4 active torsions:
REMARK  status: ('A' for Active; 'I' for Inactive)
REMARK    1  A    between atoms: C_3  and  C_4 
REMARK    2  A    between atoms: C_3  and  N_22 
REMARK    3  A    between atoms: C_4  and  O_5 
REMARK    4  A    between atoms: O_5  and  C_6 
ROOT
ATOM      1  C   UNL d   1       0.591  -0.424  -0.315  0.00  0.00     0.081 C 
ATOM      2  C   UNL d   1       0.051  -1.645  -0.172  0.00  0.00     0.050 C 
ATOM      3  C   UNL d   1      -1.390  -1.965  -0.116  0.00  0.00    -0.016 A 
ATOM      4  C   UNL d   1      -1.849  -3.068  -0.844  0.00  0.00     0.013 A 
ATOM      5  C   UNL d   1      -3.209  -3.392  -0.856  0.00  0.00     0.001 A 
ATOM      6  C   UNL d   1      -4.119  -2.617  -0.133  0.00  0.00     0.001 A 
ATOM      7  C   UNL d   1      -3.667  -1.531   0.621  0.00  0.00     0.019 A 
ATOM      8  C   UNL d   1      -2.306  -1.211   0.647  0.00  0.00     0.016 A 
ATOM      9  S   UNL d   1      -1.745   0.122   1.700  0.00  0.00    -0.089 SA
ATOM     10  C   UNL d   1      -1.339   1.120   0.275  0.00  0.00     0.018 A 
ATOM     11  C   UNL d   1      -0.237   0.794  -0.544  0.00  0.00     0.016 A 
ATOM     12  C   UNL d   1       0.058   1.615  -1.641  0.00  0.00     0.039 A 
ATOM     13  C   UNL d   1      -0.727   2.735  -1.925  0.00  0.00     0.035 A 
ATOM     14  C   UNL d   1      -1.826   3.040  -1.119  0.00  0.00     0.025 A 
ATOM     15  C   UNL d   1      -2.131   2.233  -0.022  0.00  0.00     0.021 A 
ATOM     16 CL   UNL d   1      -0.341   3.748  -3.299  0.00  0.00    -0.084 Cl
ENDROOT
BRANCH   1  17
ATOM     17  O   UNL d   1       1.989  -0.349  -0.307  0.00  0.00    -0.348 OA
BRANCH  17  18
ATOM     18  C   UNL d   1       2.703   0.880  -0.283  0.00  0.00     0.206 C 
BRANCH  18  19
ATOM     19  C   UNL d   1       4.197   0.609  -0.255  0.00  0.00     0.297 C 
BRANCH  19  20
ATOM     20  N   UNL d   1       4.572   0.002   1.011  0.00  0.00     0.082 N 
ATOM     21  C   UNL d   1       4.945  -1.372   0.726  0.00  0.00     0.309 C 
ATOM     22  C   UNL d   1       5.778   0.675   1.455  0.00  0.00     0.309 C 
ENDBRANCH  19  20
ENDBRANCH  18  19
ENDBRANCH  17  18
ENDBRANCH   1  17
TORSDOF 4
