REMARK  4 active torsions:
REMARK  status: ('A' for Active; 'I' for Inactive)
REMARK    1  A    between atoms: C_4  and  O_5 
REMARK    2  A    between atoms: C_4  and  C_7 
REMARK    3  A    between atoms: C_7  and  C_9 
REMARK    4  A    between atoms: C_9  and  O_10 
ROOT
ATOM      1  C   UNL d   1       1.070   0.741  -0.629  0.00  0.00     0.002 C 
ATOM      2  C   UNL d   1       2.062   1.022  -1.736  0.00  0.00     0.009 C 
ATOM      3  C   UNL d   1       3.366   1.325  -0.992  0.00  0.00     0.047 C 
ATOM      4  C   UNL d   1       3.138   0.984   0.494  0.00  0.00     0.128 C 
ATOM      5  C   UNL d   1       1.885   0.087   0.479  0.00  0.00     0.005 C 
ATOM      6  C   UNL d   1       2.247  -1.365   0.109  0.00  0.00     0.019 C 
ATOM      7  C   UNL d   1       1.062   0.078   1.779  0.00  0.00     0.091 C 
ATOM      8  C   UNL d   1      -0.298  -0.529   1.520  0.00  0.00     0.133 C 
ATOM      9  O   UNL d   1      -0.725  -1.401   2.260  0.00  0.00    -0.297 OA
ATOM     10  C   UNL d   1      -1.086  -0.036   0.316  0.00  0.00     0.076 C 
ATOM     11  C   UNL d   1      -0.192  -0.062  -0.943  0.00  0.00     0.003 C 
ATOM     12  C   UNL d   1      -0.897   0.368  -2.240  0.00  0.00     0.010 C 
ATOM     13  C   UNL d   1      -2.309   0.935  -2.065  0.00  0.00     0.036 C 
ATOM     14  C   UNL d   1      -3.138   0.201  -1.047  0.00  0.00    -0.063 C 
ATOM     15  C   UNL d   1      -4.462   0.390  -1.075  0.00  0.00     0.058 C 
ATOM     16  C   UNL d   1      -5.298  -0.087   0.032  0.00  0.00     0.172 C 
ATOM     17  O   UNL d   1      -6.552  -0.071  -0.060  0.00  0.00    -0.289 OA
ATOM     18  C   UNL d   1      -4.646  -0.475   1.287  0.00  0.00     0.052 C 
ATOM     19  C   UNL d   1      -3.325  -0.666   1.310  0.00  0.00    -0.008 C 
ATOM     20  C   UNL d   1      -2.482  -0.637   0.049  0.00  0.00     0.008 C 
ATOM     21  C   UNL d   1      -2.355  -2.074  -0.446  0.00  0.00     0.025 C 
ENDROOT
BRANCH   4  22
ATOM     22  O   UNL d   1       2.864   2.178   1.171  0.00  0.00    -0.381 OA
ATOM     23  HO  UNL d   1       2.724   1.968   2.086  1.00  0.00     0.211 HD
ENDBRANCH   4  22
BRANCH   4  24
ATOM     24  C   UNL d   1       4.344   0.331   1.143  0.00  0.00     0.184 C 
ATOM     25  O   UNL d   1       4.301   0.036   2.327  0.00  0.00    -0.292 OA
BRANCH  24  26
ATOM     26  C   UNL d   1       5.600   0.053   0.375  0.00  0.00     0.245 C 
BRANCH  26  27
ATOM     27  O   UNL d   1       5.824  -1.323   0.314  0.00  0.00    -0.393 OA
ATOM     28  HO  UNL d   1       6.620  -1.499  -0.172  1.00  0.00     0.209 HD
ENDBRANCH  26  27
ENDBRANCH  24  26
ENDBRANCH   4  24
TORSDOF 4
