REMARK  2 active torsions:
REMARK  status: ('A' for Active; 'I' for Inactive)
REMARK    1  A    between atoms: C_4  and  C_6 
REMARK    2  A    between atoms: C_6  and  N_7 
ROOT
ATOM      1  N   UNL d   1      -0.174   0.052   0.381  0.00  0.00    -0.344 N 
ATOM      2  C   UNL d   1      -0.732   1.379   0.446  0.00  0.00     0.052 A 
ATOM      3  C   UNL d   1      -0.294   2.288   1.421  0.00  0.00     0.031 A 
ATOM      4  C   UNL d   1      -0.942   3.516   1.584  0.00  0.00     0.002 A 
ATOM      5  C   UNL d   1      -2.039   3.840   0.783  0.00  0.00     0.002 A 
ATOM      6  C   UNL d   1      -2.478   2.946  -0.198  0.00  0.00     0.021 A 
ATOM      7  C   UNL d   1      -1.823   1.724  -0.374  0.00  0.00     0.032 A 
ATOM      8  S   UNL d   1      -2.283   0.667  -1.747  0.00  0.00    -0.086 SA
ATOM      9  C   UNL d   1      -2.140  -0.851  -0.805  0.00  0.00     0.032 A 
ATOM     10  C   UNL d   1      -1.032  -1.054   0.039  0.00  0.00     0.052 A 
ATOM     11  C   UNL d   1      -0.859  -2.305   0.652  0.00  0.00     0.031 A 
ATOM     12  C   UNL d   1      -1.783  -3.332   0.436  0.00  0.00     0.002 A 
ATOM     13  C   UNL d   1      -2.893  -3.113  -0.383  0.00  0.00     0.002 A 
ATOM     14  C   UNL d   1      -3.070  -1.875  -1.006  0.00  0.00     0.021 A 
ENDROOT
BRANCH   1  15
ATOM     15  C   UNL d   1       1.187  -0.198   0.853  0.00  0.00     0.136 C 
BRANCH  15  16
ATOM     16  C   UNL d   1       2.192   0.123  -0.240  0.00  0.00     0.034 C 
ATOM     17  C   UNL d   1       2.158  -0.919  -1.324  0.00  0.00     0.038 C 
ATOM     18  C   UNL d   1       3.604  -1.099  -1.738  0.00  0.00     0.272 C 
ATOM     19  N   UNL d   1       4.459  -0.414  -0.772  0.00  0.00     0.084 N 
ATOM     20  C   UNL d   1       5.349  -1.413  -0.209  0.00  0.00     0.309 C 
ATOM     21  C   UNL d   1       3.593   0.039   0.307  0.00  0.00     0.278 C 
ENDBRANCH  15  16
ENDBRANCH   1  15
TORSDOF 2
