REMARK  3 active torsions:
REMARK  status: ('A' for Active; 'I' for Inactive)
REMARK       I    between atoms: C_2  and  N_4 
REMARK    1  A    between atoms: N_4  and  C_6 
REMARK    2  A    between atoms: C_10  and  S_12 
REMARK    3  A    between atoms: S_12  and  N_15 
ROOT
ATOM      1  C   UNL d   1      -0.986  -0.268   0.475  0.00  0.00     0.170 A 
ATOM      2  N   UNL d   1      -0.554   0.209  -0.727  0.00  0.00    -0.274 N 
ATOM      3  N   UNL d   1       0.768   0.358  -0.789  0.00  0.00    -0.279 N 
ATOM      4  HN  UNL d   1       1.257   0.703  -1.615  1.00  0.00     0.188 HD
ATOM      5  C   UNL d   1       1.396   0.006   0.353  0.00  0.00     0.209 A 
ATOM      6  S   UNL d   1       0.310  -0.547   1.513  0.00  0.00    -0.019 SA
ATOM      7  C   UNL d   1      -1.362   0.416  -1.918  0.00  0.00     0.180 C 
ENDROOT
BRANCH   5   8
ATOM      8  S   UNL d   1       3.132   0.078   0.571  0.00  0.00     0.280 S 
ATOM      9  O   UNL d   1       3.683  -1.315   0.690  0.00  0.00    -0.199 OA
ATOM     10  O   UNL d   1       3.758   0.759  -0.613  0.00  0.00    -0.199 OA
BRANCH   8  11
ATOM     11  N   UNL d   1       3.499   0.976   1.999  0.00  0.00    -0.323 N 
ATOM     12  HN2 UNL d   1       2.800   1.395   2.612  1.00  0.00     0.169 HD
ATOM     13  HN1 UNL d   1       4.510   1.018   2.126  1.00  0.00     0.169 HD
ENDBRANCH   8  11
ENDBRANCH   5   8
BRANCH   1  14
ATOM     14  N   UNL d   1      -2.218  -0.532   0.813  0.00  0.00    -0.306 N 
ATOM     15  C   UNL d   1      -3.417  -0.217   0.098  0.00  0.00     0.219 C 
ATOM     16  C   UNL d   1      -3.729   1.189  -0.287  0.00  0.00     0.117 C 
ATOM     17  O   UNL d   1      -4.280  -1.113  -0.091  0.00  0.00    -0.274 OA
ATOM     18  HN  UNL d   1      -2.342  -1.026   1.697  1.00  0.00     0.171 HD
ENDBRANCH   1  14
TORSDOF 3
