REMARK  4 active torsions:
REMARK  status: ('A' for Active; 'I' for Inactive)
REMARK    1  A    between atoms: N_5  and  C_6 
REMARK    2  A    between atoms: C_6  and  C_7 
REMARK    3  A    between atoms: N_14  and  C_15 
REMARK    4  A    between atoms: C_15  and  C_16 
ROOT
ATOM      1  S   UNL d   1      -1.212  -2.703  -2.190  0.00  0.00    -0.053 SA
ATOM      2  C   UNL d   1      -0.287  -1.486  -1.599  0.00  0.00     0.140 C 
ATOM      3  S   UNL d   1       1.359  -1.845  -1.007  0.00  0.00    -0.070 SA
ATOM      4  C   UNL d   1       0.878  -1.290   0.673  0.00  0.00     0.356 C 
ATOM      5  N   UNL d   1       0.435   0.120   0.742  0.00  0.00     0.119 N 
ATOM      6  C   UNL d   1      -0.000   0.724  -0.530  0.00  0.00     0.400 C 
ATOM      7  N   UNL d   1      -0.835  -0.200  -1.289  0.00  0.00    -0.337 N 
ENDROOT
BRANCH   5   8
ATOM      8  C   UNL d   1       1.466   0.955   1.370  0.00  0.00     0.314 C 
BRANCH   8   9
ATOM      9  C   UNL d   1       2.757   1.003   0.602  0.00  0.00    -0.030 A 
ATOM     10  C   UNL d   1       2.930   1.932  -0.431  0.00  0.00     0.009 A 
ATOM     11  C   UNL d   1       4.130   1.970  -1.146  0.00  0.00     0.001 A 
ATOM     12  C   UNL d   1       5.162   1.082  -0.828  0.00  0.00     0.000 A 
ATOM     13  C   UNL d   1       4.994   0.156   0.206  0.00  0.00     0.001 A 
ATOM     14  C   UNL d   1       3.793   0.118   0.921  0.00  0.00     0.009 A 
ENDBRANCH   8   9
ENDBRANCH   5   8
BRANCH   7  15
ATOM     15  C   UNL d   1      -2.204   0.176  -1.622  0.00  0.00     0.164 C 
BRANCH  15  16
ATOM     16  C   UNL d   1      -3.090   0.028  -0.430  0.00  0.00    -0.040 A 
ATOM     17  C   UNL d   1      -3.711  -1.198  -0.164  0.00  0.00     0.009 A 
ATOM     18  C   UNL d   1      -4.518  -1.343   0.968  0.00  0.00     0.001 A 
ATOM     19  C   UNL d   1      -4.701  -0.264   1.839  0.00  0.00     0.000 A 
ATOM     20  C   UNL d   1      -4.077   0.960   1.578  0.00  0.00     0.001 A 
ATOM     21  C   UNL d   1      -3.269   1.105   0.445  0.00  0.00     0.009 A 
ENDBRANCH  15  16
ENDBRANCH   7  15
TORSDOF 4
