REMARK  5 active torsions:
REMARK  status: ('A' for Active; 'I' for Inactive)
REMARK    1  A    between atoms: N_2  and  C_5 
REMARK    2  A    between atoms: C_5  and  C_6 
REMARK    3  A    between atoms: C_6  and  C_7 
REMARK    4  A    between atoms: C_6  and  O_10 
REMARK    5  A    between atoms: C_7  and  C_8 
ROOT
ATOM      1  C   UNL d   1      -0.225  -0.246  -0.135  0.00  0.00     0.154 C 
ENDROOT
BRANCH   1   2
ATOM      2  C   UNL d   1       1.095  -0.173   0.637  0.00  0.00     0.268 C 
BRANCH   2   3
ATOM      3  N   UNL d   1       2.184   0.457  -0.117  0.00  0.00    -0.076 N 
ATOM      4  C   UNL d   1       1.829   1.807  -0.529  0.00  0.00     0.271 C 
ATOM      5  C   UNL d   1       3.344   0.540   0.750  0.00  0.00     0.271 C 
ATOM      6  C   UNL d   1       2.549  -0.331  -1.284  0.00  0.00     0.271 C 
ENDBRANCH   2   3
ENDBRANCH   1   2
BRANCH   1   7
ATOM      7  C   UNL d   1      -1.372  -0.364   0.853  0.00  0.00     0.146 C 
BRANCH   7   8
ATOM      8  C   UNL d   1      -2.677  -0.142   0.170  0.00  0.00     0.175 C 
ATOM      9  O   UNL d   1      -3.136   1.024   0.052  0.00  0.00    -0.648 OA
ATOM     10  O   UNL d   1      -3.372  -1.217  -0.367  0.00  0.00    -0.648 OA
ENDBRANCH   7   8
ENDBRANCH   1   7
BRANCH   1  11
ATOM     11  O   UNL d   1      -0.218  -1.357  -0.981  0.00  0.00    -0.393 OA
ATOM     12  HO  UNL d   1      -1.037  -1.403  -1.460  1.00  0.00     0.210 HD
ENDBRANCH   1  11
TORSDOF 5
