REMARK  2 active torsions:
REMARK  status: ('A' for Active; 'I' for Inactive)
REMARK    1  A    between atoms: C_2  and  C_3 
REMARK    2  A    between atoms: C_2  and  C_6 
ROOT
ATOM      1  C   UNL d   1       2.251  -0.245  -0.728  0.00  0.00    -0.044 A 
ATOM      2  C   UNL d   1       1.538  -1.029   0.186  0.00  0.00     0.017 A 
ATOM      3  C   UNL d   1       0.223  -1.413  -0.093  0.00  0.00    -0.033 A 
ATOM      4  C   UNL d   1      -0.386  -1.003  -1.285  0.00  0.00     0.012 A 
ATOM      5  S   UNL d   1      -2.087  -1.463  -1.588  0.00  0.00    -0.089 SA
ATOM      6  C   UNL d   1      -2.685  -0.256  -0.400  0.00  0.00     0.019 A 
ATOM      7  C   UNL d   1      -3.454   0.797  -0.909  0.00  0.00     0.020 A 
ATOM      8  C   UNL d   1      -4.010   1.751  -0.057  0.00  0.00     0.001 A 
ATOM      9  C   UNL d   1      -3.802   1.660   1.317  0.00  0.00     0.001 A 
ATOM     10  C   UNL d   1      -3.024   0.624   1.837  0.00  0.00     0.016 A 
ATOM     11  C   UNL d   1      -2.444  -0.344   1.000  0.00  0.00     0.027 A 
ATOM     12  C   UNL d   1      -1.554  -1.356   1.645  0.00  0.00     0.165 C 
ATOM     13  O   UNL d   1      -1.618  -1.516   2.894  0.00  0.00    -0.292 OA
ATOM     14  C   UNL d   1      -0.562  -2.207   0.902  0.00  0.00     0.123 C 
ATOM     15  C   UNL d   1       0.313  -0.206  -2.195  0.00  0.00     0.020 A 
ATOM     16  C   UNL d   1       1.630   0.170  -1.919  0.00  0.00     0.009 A 
ENDROOT
BRANCH   1  17
ATOM     17  C   UNL d   1       3.655   0.159  -0.400  0.00  0.00     0.115 C 
ATOM     18  C   UNL d   1       4.634  -0.277  -1.480  0.00  0.00     0.026 C 
BRANCH  17  19
ATOM     19  C   UNL d   1       3.764   1.625  -0.121  0.00  0.00     0.181 C 
ATOM     20  O   UNL d   1       3.967   2.060   1.181  0.00  0.00    -0.647 OA
ATOM     21  O   UNL d   1       3.651   2.467  -1.051  0.00  0.00    -0.647 OA
ENDBRANCH  17  19
ENDBRANCH   1  17
TORSDOF 2
