REMARK  10 active torsions:
REMARK  status: ('A' for Active; 'I' for Inactive)
REMARK    1  A    between atoms: C_2  and  C_3 
REMARK    2  A    between atoms: C_3  and  N_4 
REMARK    3  A    between atoms: N_4  and  C_5 
REMARK       I    between atoms: N_4  and  C_8 
REMARK    4  A    between atoms: C_5  and  C_6 
REMARK    5  A    between atoms: C_8  and  C_10 
REMARK    6  A    between atoms: C_10  and  C_11 
REMARK    7  A    between atoms: C_10  and  N_15 
REMARK    8  A    between atoms: C_11  and  C_12 
REMARK    9  A    between atoms: C_12  and  C_13 
REMARK       I    between atoms: N_15  and  C_17 
REMARK   10  A    between atoms: C_17  and  C_19 
ROOT
ATOM      1  C   UNL d   1      -0.340   0.889   0.340  0.00  0.00     0.177 C 
ENDROOT
BRANCH   1   2
ATOM      2  C   UNL d   1      -1.120  -0.219   0.993  0.00  0.00     0.242 C 
ATOM      3  N   UNL d   1      -2.354  -0.680   0.415  0.00  0.00    -0.350 N 
ATOM      4  O   UNL d   1      -0.683  -0.751   2.050  0.00  0.00    -0.271 OA
BRANCH   3   5
ATOM      5  C   UNL d   1      -3.161  -1.689   1.091  0.00  0.00     0.125 C 
BRANCH   5   6
ATOM      6  C   UNL d   1      -3.848  -1.087   2.302  0.00  0.00     0.015 C 
ATOM      7  C   UNL d   1      -4.675  -2.150   2.993  0.00  0.00     0.006 C 
ENDBRANCH   5   6
ENDBRANCH   3   5
BRANCH   3   8
ATOM      8  C   UNL d   1      -2.791  -0.199  -0.892  0.00  0.00     0.125 C 
BRANCH   8   9
ATOM      9  C   UNL d   1      -2.628  -1.279  -1.952  0.00  0.00     0.015 C 
ATOM     10  C   UNL d   1      -1.162  -1.488  -2.280  0.00  0.00     0.006 C 
ENDBRANCH   8   9
ENDBRANCH   3   8
ENDBRANCH   1   2
BRANCH   1  11
ATOM     11  C   UNL d   1       0.057   1.995   1.316  0.00  0.00     0.045 C 
BRANCH  11  12
ATOM     12  C   UNL d   1      -1.158   2.779   1.795  0.00  0.00     0.116 C 
BRANCH  12  13
ATOM     13  C   UNL d   1      -1.688   3.652   0.709  0.00  0.00     0.172 C 
ATOM     14  O   UNL d   1      -2.680   3.279   0.029  0.00  0.00    -0.648 OA
ATOM     15  O   UNL d   1      -1.071   4.863   0.427  0.00  0.00    -0.648 OA
ENDBRANCH  12  13
ENDBRANCH  11  12
ENDBRANCH   1  11
BRANCH   1  16
ATOM     16  N   UNL d   1       0.820   0.370  -0.382  0.00  0.00    -0.344 N 
ATOM     17  C   UNL d   1       1.980  -0.216   0.226  0.00  0.00     0.252 C 
ATOM     18  O   UNL d   1       2.089  -0.254   1.482  0.00  0.00    -0.268 OA
ATOM     19  HN  UNL d   1       0.804   0.430  -1.400  1.00  0.00     0.163 HD
BRANCH  17  20
ATOM     20  C   UNL d   1       3.050  -0.771  -0.622  0.00  0.00     0.032 A 
ATOM     21  C   UNL d   1       4.193  -1.339  -0.041  0.00  0.00     0.017 A 
ATOM     22  C   UNL d   1       5.207  -1.867  -0.847  0.00  0.00     0.001 A 
ATOM     23  C   UNL d   1       5.084  -1.831  -2.238  0.00  0.00     0.000 A 
ATOM     24  C   UNL d   1       3.947  -1.267  -2.825  0.00  0.00     0.001 A 
ATOM     25  C   UNL d   1       2.934  -0.739  -2.019  0.00  0.00     0.017 A 
ENDBRANCH  17  20
ENDBRANCH   1  16
TORSDOF 10
