REMARK  1 active torsions:
REMARK  status: ('A' for Active; 'I' for Inactive)
REMARK    1  A    between atoms: C_16  and  O_17 
ROOT
ATOM      1  C   UNL d   1      -3.625   0.425  -2.338  0.00  0.00     0.018 C 
ATOM      2  C   UNL d   1      -3.627   1.039  -0.951  0.00  0.00     0.052 C 
ATOM      3  C   UNL d   1      -2.203   1.482  -0.571  0.00  0.00     0.021 C 
ATOM      4  C   UNL d   1      -1.385   0.501   0.295  0.00  0.00    -0.035 C 
ATOM      5  C   UNL d   1      -1.968  -0.934   0.196  0.00  0.00     0.001 C 
ATOM      6  C   UNL d   1      -1.107  -1.990   0.901  0.00  0.00     0.006 C 
ATOM      7  C   UNL d   1       0.323  -1.969   0.361  0.00  0.00     0.006 C 
ATOM      8  C   UNL d   1       0.906  -0.576   0.567  0.00  0.00    -0.005 C 
ATOM      9  C   UNL d   1       0.065   0.451  -0.217  0.00  0.00    -0.002 C 
ATOM     10  C   UNL d   1       0.789   1.806  -0.339  0.00  0.00     0.007 C 
ATOM     11  C   UNL d   1       2.136   1.675  -1.093  0.00  0.00     0.012 C 
ATOM     12  C   UNL d   1       2.702   0.239  -1.102  0.00  0.00    -0.014 C 
ATOM     13  C   UNL d   1       2.395  -0.440   0.215  0.00  0.00     0.001 C 
ATOM     14  C   UNL d   1       3.340  -1.610   0.348  0.00  0.00     0.008 C 
ATOM     15  C   UNL d   1       4.576  -1.166  -0.435  0.00  0.00     0.033 C 
ATOM     16  C   UNL d   1       4.221   0.129  -1.181  0.00  0.00     0.126 C 
ATOM     17  C   UNL d   1       2.109  -0.524  -2.286  0.00  0.00     0.018 C 
ATOM     18  C   UNL d   1      -3.413  -0.998   0.681  0.00  0.00     0.084 C 
ATOM     19  C   UNL d   1      -4.235   0.083   0.039  0.00  0.00     0.131 C 
ATOM     20  O   UNL d   1      -5.422   0.170   0.307  0.00  0.00    -0.298 OA
ATOM     21  C   UNL d   1      -1.414   1.004   1.739  0.00  0.00     0.016 C 
ENDROOT
BRANCH  16  22
ATOM     22  O   UNL d   1       4.836   1.205  -0.534  0.00  0.00    -0.395 OA
ATOM     23  HO  UNL d   1       5.783   1.136  -0.584  1.00  0.00     0.210 HD
ENDBRANCH  16  22
TORSDOF 1
