REMARK  30 active torsions:
REMARK  status: ('A' for Active; 'I' for Inactive)
REMARK    1  A    between atoms: C_4  and  C_5 
REMARK    2  A    between atoms: C_5  and  C_6 
REMARK    3  A    between atoms: C_7  and  C_6 
REMARK    4  A    between atoms: C_7  and  O_9 
REMARK    5  A    between atoms: C_36  and  C_7 
REMARK    6  A    between atoms: C_10  and  O_9 
REMARK    7  A    between atoms: C_12  and  C_13 
REMARK    8  A    between atoms: C_13  and  O_14 
REMARK    9  A    between atoms: C_15  and  O_14 
REMARK   10  A    between atoms: C_17  and  C_18 
REMARK   11  A    between atoms: C_18  and  O_19 
REMARK   12  A    between atoms: C_21  and  O_22 
REMARK   13  A    between atoms: C_24  and  O_25 
REMARK   14  A    between atoms: C_27  and  O_28 
REMARK   15  A    between atoms: C_30  and  O_31 
REMARK   16  A    between atoms: C_33  and  O_34 
REMARK   17  A    between atoms: C_42  and  O_43 
REMARK   18  A    between atoms: C_51  and  O_52 
REMARK   19  A    between atoms: C_53  and  O_52 
REMARK   20  A    between atoms: C_55  and  C_56 
REMARK   21  A    between atoms: C_56  and  O_57 
REMARK   22  A    between atoms: C_59  and  O_60 
REMARK   23  A    between atoms: C_62  and  O_63 
REMARK   24  A    between atoms: C_65  and  O_66 
REMARK   25  A    between atoms: C_67  and  O_66 
REMARK   26  A    between atoms: C_69  and  C_70 
REMARK   27  A    between atoms: C_70  and  O_71 
REMARK   28  A    between atoms: C_73  and  O_74 
REMARK   29  A    between atoms: C_76  and  O_77 
REMARK   30  A    between atoms: C_79  and  O_80 
ROOT
ATOM      1  C   UNL d   1       3.397   2.022   1.458  0.00  0.00     0.027 C 
ATOM      2  C   UNL d   1       3.101   3.519   1.262  0.00  0.00     0.009 C 
ATOM      3  C   UNL d   1       1.723   3.630   0.612  0.00  0.00     0.011 C 
ATOM      4  C   UNL d   1       1.035   2.316   0.932  0.00  0.00    -0.030 C 
ATOM      5  C   UNL d   1       0.487   2.418   2.367  0.00  0.00     0.016 C 
ATOM      6  C   UNL d   1       2.184   1.310   0.846  0.00  0.00     0.030 C 
ATOM      7  C   UNL d   1       1.715  -0.057   1.376  0.00  0.00     0.123 C 
ATOM      8  C   UNL d   1       0.598  -0.559   0.463  0.00  0.00     0.038 C 
ATOM      9  C   UNL d   1      -0.556   0.458   0.382  0.00  0.00     0.005 C 
ATOM     10  C   UNL d   1      -1.829  -0.073  -0.311  0.00  0.00    -0.035 C 
ATOM     11  C   UNL d   1      -1.538  -0.405  -1.777  0.00  0.00     0.016 C 
ATOM     12  C   UNL d   1      -2.281  -1.348   0.407  0.00  0.00     0.012 C 
ATOM     13  C   UNL d   1      -3.612  -1.851  -0.136  0.00  0.00     0.034 C 
ATOM     14  C   UNL d   1      -4.702  -0.801   0.070  0.00  0.00     0.133 C 
ATOM     15  C   UNL d   1      -4.358   0.545  -0.606  0.00  0.00    -0.017 C 
ATOM     16  C   UNL d   1      -5.374   1.574  -0.140  0.00  0.00     0.018 C 
ATOM     17  C   UNL d   1      -4.468   0.433  -2.123  0.00  0.00     0.018 C 
ATOM     18  C   UNL d   1      -2.940   1.001  -0.171  0.00  0.00     0.004 C 
ATOM     19  C   UNL d   1      -2.504   2.356  -0.739  0.00  0.00     0.007 C 
ATOM     20  C   UNL d   1      -1.283   2.862   0.031  0.00  0.00     0.011 C 
ATOM     21  C   UNL d   1      -0.093   1.887  -0.049  0.00  0.00    -0.032 C 
ATOM     22  C   UNL d   1       0.436   1.884  -1.487  0.00  0.00     0.016 C 
ENDROOT
BRANCH   1  23
ATOM     23  C   UNL d   1       4.795   1.632   0.893  0.00  0.00     0.065 C 
ATOM     24  C   UNL d   1       5.816   2.342   1.796  0.00  0.00     0.046 C 
BRANCH  23  25
ATOM     25  C   UNL d   1       5.011   2.135  -0.557  0.00  0.00     0.042 C 
BRANCH  25  26
ATOM     26  C   UNL d   1       3.974   1.663  -1.580  0.00  0.00     0.030 C 
BRANCH  26  27
ATOM     27  C   UNL d   1       4.099   0.196  -1.855  0.00  0.00    -0.025 C 
ATOM     28  C   UNL d   1       3.395  -0.435  -2.800  0.00  0.00    -0.091 C 
ATOM     29  C   UNL d   1       2.439   0.284  -3.699  0.00  0.00     0.042 C 
ATOM     30  C   UNL d   1       3.584  -1.902  -2.966  0.00  0.00     0.042 C 
ENDBRANCH  26  27
ENDBRANCH  25  26
ENDBRANCH  23  25
BRANCH  23  31
ATOM     31  O   UNL d   1       4.927   0.218   0.953  0.00  0.00    -0.348 OA
BRANCH  31  32
ATOM     32  C   UNL d   1       6.270  -0.213   0.907  0.00  0.00     0.292 C 
ATOM     33  O   UNL d   1       6.702  -0.328  -0.429  0.00  0.00    -0.348 OA
ATOM     34  C   UNL d   1       8.062  -0.682  -0.364  0.00  0.00     0.180 C 
ATOM     35  C   UNL d   1       8.206  -2.170  -0.004  0.00  0.00     0.180 C 
ATOM     36  C   UNL d   1       7.015  -2.669   0.827  0.00  0.00     0.183 C 
ATOM     37  C   UNL d   1       6.372  -1.555   1.667  0.00  0.00     0.204 C 
BRANCH  34  38
ATOM     38  C   UNL d   1       8.753  -0.354  -1.682  0.00  0.00     0.205 C 
BRANCH  38  39
ATOM     39  O   UNL d   1      10.139  -0.527  -1.569  0.00  0.00    -0.356 OA
BRANCH  39  40
ATOM     40  C   UNL d   1      10.632   0.704  -1.124  0.00  0.00     0.291 C 
ATOM     41  O   UNL d   1      11.489   1.254  -2.092  0.00  0.00    -0.348 OA
ATOM     42  C   UNL d   1      12.439   2.020  -1.390  0.00  0.00     0.179 C 
ATOM     43  C   UNL d   1      12.484   1.558   0.052  0.00  0.00     0.182 C 
ATOM     44  C   UNL d   1      11.416   0.512   0.147  0.00  0.00     0.204 C 
BRANCH  42  45
ATOM     45  C   UNL d   1      12.078   3.498  -1.448  0.00  0.00     0.198 C 
BRANCH  45  46
ATOM     46  O   UNL d   1      12.228   3.979  -2.749  0.00  0.00    -0.398 OA
ATOM     47  HO  UNL d   1      12.002   4.901  -2.786  1.00  0.00     0.209 HD
ENDBRANCH  45  46
ENDBRANCH  42  45
BRANCH  43  48
ATOM     48  O   UNL d   1      13.726   0.980   0.317  0.00  0.00    -0.390 OA
ATOM     49  HO  UNL d   1      13.754   0.691   1.221  1.00  0.00     0.210 HD
ENDBRANCH  43  48
BRANCH  44  50
ATOM     50  O   UNL d   1      10.596   0.774   1.248  0.00  0.00    -0.388 OA
ATOM     51  HO  UNL d   1       9.919   0.110   1.309  1.00  0.00     0.210 HD
ENDBRANCH  44  50
ENDBRANCH  39  40
ENDBRANCH  38  39
ENDBRANCH  34  38
BRANCH  35  52
ATOM     52  O   UNL d   1       9.392  -2.369   0.713  0.00  0.00    -0.390 OA
ATOM     53  HO  UNL d   1       9.481  -3.288   0.935  1.00  0.00     0.210 HD
ENDBRANCH  35  52
BRANCH  36  54
ATOM     54  O   UNL d   1       6.056  -3.221  -0.022  0.00  0.00    -0.390 OA
ATOM     55  HO  UNL d   1       5.319  -3.530   0.492  1.00  0.00     0.210 HD
ENDBRANCH  36  54
BRANCH  37  56
ATOM     56  O   UNL d   1       7.098  -1.370   2.843  0.00  0.00    -0.388 OA
ATOM     57  HO  UNL d   1       6.700  -0.681   3.363  1.00  0.00     0.210 HD
ENDBRANCH  37  56
ENDBRANCH  31  32
ENDBRANCH  23  31
ENDBRANCH   1  23
BRANCH   7  58
ATOM     58  O   UNL d   1       2.738  -1.000   1.383  0.00  0.00    -0.395 OA
ATOM     59  HO  UNL d   1       2.449  -1.844   1.710  1.00  0.00     0.210 HD
ENDBRANCH   7  58
BRANCH  14  60
ATOM     60  O   UNL d   1      -5.923  -1.317  -0.398  0.00  0.00    -0.352 OA
BRANCH  60  61
ATOM     61  C   UNL d   1      -6.695  -1.593   0.741  0.00  0.00     0.292 C 
ATOM     62  O   UNL d   1      -6.218  -2.766   1.365  0.00  0.00    -0.348 OA
ATOM     63  C   UNL d   1      -6.966  -2.914   2.547  0.00  0.00     0.179 C 
ATOM     64  C   UNL d   1      -8.379  -3.418   2.230  0.00  0.00     0.180 C 
ATOM     65  C   UNL d   1      -8.810  -3.049   0.805  0.00  0.00     0.183 C 
ATOM     66  C   UNL d   1      -8.172  -1.736   0.311  0.00  0.00     0.211 C 
BRANCH  63  67
ATOM     67  C   UNL d   1      -6.256  -3.849   3.516  0.00  0.00     0.198 C 
BRANCH  67  68
ATOM     68  O   UNL d   1      -5.910  -5.051   2.879  0.00  0.00    -0.398 OA
ATOM     69  HO  UNL d   1      -5.467  -5.634   3.484  1.00  0.00     0.209 HD
ENDBRANCH  67  68
ENDBRANCH  63  67
BRANCH  64  70
ATOM     70  O   UNL d   1      -9.276  -2.886   3.153  0.00  0.00    -0.390 OA
ATOM     71  HO  UNL d   1     -10.152  -3.198   2.957  1.00  0.00     0.210 HD
ENDBRANCH  64  70
BRANCH  65  72
ATOM     72  O   UNL d   1      -8.477  -4.084  -0.066  0.00  0.00    -0.390 OA
ATOM     73  HO  UNL d   1      -8.744  -3.855  -0.948  1.00  0.00     0.210 HD
ENDBRANCH  65  72
BRANCH  66  74
ATOM     74  O   UNL d   1      -8.895  -0.631   0.767  0.00  0.00    -0.346 OA
BRANCH  74  75
ATOM     75  C   UNL d   1      -9.913  -0.439  -0.178  0.00  0.00     0.292 C 
ATOM     76  O   UNL d   1      -9.640   0.692  -0.968  0.00  0.00    -0.348 OA
ATOM     77  C   UNL d   1     -10.512   0.585  -2.067  0.00  0.00     0.179 C 
ATOM     78  C   UNL d   1     -11.969   0.827  -1.654  0.00  0.00     0.180 C 
ATOM     79  C   UNL d   1     -12.178   0.730  -0.133  0.00  0.00     0.183 C 
ATOM     80  C   UNL d   1     -11.265  -0.307   0.535  0.00  0.00     0.204 C 
BRANCH  77  81
ATOM     81  C   UNL d   1     -10.108   1.570  -3.149  0.00  0.00     0.198 C 
BRANCH  81  82
ATOM     82  O   UNL d   1      -8.856   1.230  -3.649  0.00  0.00    -0.398 OA
ATOM     83  HO  UNL d   1      -8.603   1.847  -4.326  1.00  0.00     0.209 HD
ENDBRANCH  81  82
ENDBRANCH  77  81
BRANCH  78  84
ATOM     84  O   UNL d   1     -12.790  -0.097  -2.303  0.00  0.00    -0.390 OA
ATOM     85  HO  UNL d   1     -13.692   0.053  -2.047  1.00  0.00     0.210 HD
ENDBRANCH  78  84
BRANCH  79  86
ATOM     86  O   UNL d   1     -11.958   1.980   0.451  0.00  0.00    -0.390 OA
ATOM     87  HO  UNL d   1     -12.086   1.920   1.390  1.00  0.00     0.210 HD
ENDBRANCH  79  86
BRANCH  80  88
ATOM     88  O   UNL d   1     -11.899  -1.552   0.555  0.00  0.00    -0.388 OA
ATOM     89  HO  UNL d   1     -11.335  -2.194   0.969  1.00  0.00     0.210 HD
ENDBRANCH  80  88
ENDBRANCH  74  75
ENDBRANCH  66  74
ENDBRANCH  60  61
ENDBRANCH  14  60
TORSDOF 30
