REMARK  2 active torsions:
REMARK  status: ('A' for Active; 'I' for Inactive)
REMARK    1  A    between atoms: C_5  and  C_10 
REMARK    2  A    between atoms: C_5  and  C_16 
ROOT
ATOM      1  O   UNL d   1      -0.926   3.944   0.297  0.00  0.00    -0.247 OA
ATOM      2  C   UNL d   1      -0.685   2.736   0.553  0.00  0.00     0.324 A 
ATOM      3  N   UNL d   1      -0.348   1.790  -0.452  0.00  0.00    -0.317 N 
ATOM      4  HN  UNL d   1      -0.268   1.977  -1.451  1.00  0.00     0.166 HD
ATOM      5  C   UNL d   1      -0.137   0.496   0.205  0.00  0.00     0.171 A 
ATOM      6  C   UNL d   1      -0.393   0.843   1.657  0.00  0.00     0.263 A 
ATOM      7  O   UNL d   1      -0.325   0.022   2.611  0.00  0.00    -0.269 OA
ATOM      8  N   UNL d   1      -0.726   2.208   1.864  0.00  0.00    -0.277 N 
ATOM      9  HN  UNL d   1      -0.942   2.687   2.738  1.00  0.00     0.173 HD
ENDROOT
BRANCH   5  10
ATOM     10  C   UNL d   1      -1.127  -0.529  -0.320  0.00  0.00    -0.016 A 
ATOM     11  C   UNL d   1      -1.432  -1.680   0.428  0.00  0.00     0.010 A 
ATOM     12  C   UNL d   1      -2.298  -2.651  -0.082  0.00  0.00     0.001 A 
ATOM     13  C   UNL d   1      -2.856  -2.493  -1.352  0.00  0.00     0.000 A 
ATOM     14  C   UNL d   1      -2.544  -1.365  -2.115  0.00  0.00     0.001 A 
ATOM     15  C   UNL d   1      -1.679  -0.394  -1.605  0.00  0.00     0.010 A 
ENDBRANCH   5  10
BRANCH   5  16
ATOM     16  C   UNL d   1       1.285   0.015  -0.025  0.00  0.00    -0.016 A 
ATOM     17  C   UNL d   1       1.868  -0.935   0.832  0.00  0.00     0.010 A 
ATOM     18  C   UNL d   1       3.155  -1.422   0.586  0.00  0.00     0.001 A 
ATOM     19  C   UNL d   1       3.869  -0.976  -0.528  0.00  0.00     0.000 A 
ATOM     20  C   UNL d   1       3.294  -0.048  -1.400  0.00  0.00     0.001 A 
ATOM     21  C   UNL d   1       2.007   0.438  -1.154  0.00  0.00     0.010 A 
ENDBRANCH   5  16
TORSDOF 2
