REMARK  Name = fda_7537
REMARK  2 active torsions:
REMARK  status: ('A' for Active; 'I' for Inactive)
REMARK    1  A    between atoms: N_8  and  C_9
REMARK    2  A    between atoms: C_9  and  C_10
REMARK                            x       y       z     vdW  Elec       q    Type
REMARK                         _______ _______ _______ _____ _____    ______ ____
ROOT
ATOM      1  O   UNL A   1      -3.771   1.969   2.081  0.00  0.00    -0.283 OA
ATOM      2  C   UNL A   1      -2.530   1.849   1.471  0.00  0.00    +0.229 A 
ATOM      3  C   UNL A   1      -1.729   2.984   1.236  0.00  0.00    +0.045 A 
ATOM      4  C   UNL A   1      -0.500   2.857   0.549  0.00  0.00    -0.001 A 
ATOM      5  C   UNL A   1      -0.045   1.587   0.156  0.00  0.00    -0.021 A 
ATOM      6  C   UNL A   1       1.089   1.413  -0.819  0.00  0.00    +0.045 C 
ATOM      7  C   UNL A   1       1.402  -0.087  -1.141  0.00  0.00    +0.090 C 
ATOM      8  N   UNL A   1       2.372  -0.712  -0.188  0.00  0.00    -0.272 NA
ATOM      9  C   UNL A   1       1.830  -1.751   0.709  0.00  0.00    +0.073 C 
ATOM     10  C   UNL A   1       0.385  -1.507   1.183  0.00  0.00    +0.028 C 
ATOM     11  C   UNL A   1      -0.549  -0.924   0.109  0.00  0.00    +0.093 C 
ATOM     12  C   UNL A   1      -1.975  -1.543   0.224  0.00  0.00    +0.228 C 
ATOM     13  O   UNL A   1      -2.732  -0.591   0.988  0.00  0.00    -0.468 OA
ATOM     14  C   UNL A   1      -2.054   0.610   1.044  0.00  0.00    +0.173 A 
ATOM     15  C   UNL A   1      -0.818   0.483   0.497  0.00  0.00    +0.017 A 
ATOM     16  C   UNL A   1      -2.662  -1.754  -1.111  0.00  0.00    +0.191 C 
ATOM     17  O   UNL A   1      -3.718  -2.364  -1.123  0.00  0.00    -0.292 OA
ATOM     18  C   UNL A   1      -2.113  -1.262  -2.432  0.00  0.00    +0.071 C 
ATOM     19  C   UNL A   1      -0.865  -0.383  -2.319  0.00  0.00    +0.040 C 
ATOM     20  C   UNL A   1       0.110  -0.944  -1.285  0.00  0.00    +0.148 C 
ATOM     21  O   UNL A   1       0.450  -2.251  -1.663  0.00  0.00    -0.224 OA
ENDROOT
BRANCH   8  22
ATOM     22  C   UNL A   1       3.142   0.237   0.614  0.00  0.00    +0.072 C 
BRANCH  22  23
ATOM     23  C   UNL A   1       4.403   0.635  -0.127  0.00  0.00    +0.016 C 
ATOM     24  C   UNL A   1       5.598  -0.006   0.547  0.00  0.00    +0.001 C 
ATOM     25  C   UNL A   1       5.281   1.452   0.797  0.00  0.00    +0.001 C 
ENDBRANCH  22  23
ENDBRANCH   8  22
TORSDOF 2
