REMARK  5 active torsions:
REMARK  status: ('A' for Active; 'I' for Inactive)
REMARK    1  A    between atoms: O_1  and  C_3 
REMARK    2  A    between atoms: N_6  and  C_7 
REMARK    3  A    between atoms: C_7  and  C_8 
REMARK    4  A    between atoms: C_8  and  C_9 
REMARK    5  A    between atoms: C_9  and  N_10 
ROOT
ATOM      1  N   UNL d   1      -0.976  -0.104   0.141  0.00  0.00    -0.345 N 
ATOM      2  C   UNL d   1      -1.147  -1.508   0.420  0.00  0.00     0.052 A 
ATOM      3  C   UNL d   1      -0.262  -2.175   1.281  0.00  0.00     0.031 A 
ATOM      4  C   UNL d   1      -0.516  -3.492   1.674  0.00  0.00     0.002 A 
ATOM      5  C   UNL d   1      -1.662  -4.149   1.220  0.00  0.00     0.002 A 
ATOM      6  C   UNL d   1      -2.545  -3.498   0.355  0.00  0.00     0.021 A 
ATOM      7  C   UNL d   1      -2.287  -2.186  -0.052  0.00  0.00     0.032 A 
ATOM      8  S   UNL d   1      -3.328  -1.429  -1.300  0.00  0.00    -0.086 SA
ATOM      9  C   UNL d   1      -3.338   0.180  -0.511  0.00  0.00     0.032 A 
ATOM     10  C   UNL d   1      -4.516   0.933  -0.500  0.00  0.00     0.023 A 
ATOM     11  C   UNL d   1      -4.506   2.243  -0.014  0.00  0.00     0.024 A 
ATOM     12  C   UNL d   1      -3.315   2.807   0.452  0.00  0.00     0.046 A 
ATOM     13  C   UNL d   1      -2.140   2.049   0.463  0.00  0.00     0.053 A 
ATOM     14  C   UNL d   1      -2.141   0.730  -0.015  0.00  0.00     0.053 A 
ATOM     15  C   UNL d   1      -3.304   4.155   0.945  0.00  0.00     0.099 C 
ATOM     16  N   UNL d   1      -3.294   5.242   1.342  0.00  0.00    -0.191 NA
ENDROOT
BRANCH   1  17
ATOM     17  C   UNL d   1       0.350   0.501   0.221  0.00  0.00     0.131 C 
BRANCH  17  18
ATOM     18  C   UNL d   1       1.035   0.414  -1.132  0.00  0.00     0.050 C 
BRANCH  18  19
ATOM     19  C   UNL d   1       2.452   0.956  -1.038  0.00  0.00     0.274 C 
BRANCH  19  20
ATOM     20  N   UNL d   1       3.292   0.045  -0.274  0.00  0.00     0.088 N 
ATOM     21  C   UNL d   1       3.958  -0.845  -1.237  0.00  0.00     0.275 C 
ATOM     22  C   UNL d   1       5.202  -1.487  -0.629  0.00  0.00     0.062 C 
ATOM     23  C   UNL d   1       6.240  -0.423  -0.262  0.00  0.00     0.121 C 
ATOM     24  C   UNL d   1       5.627   0.969  -0.086  0.00  0.00     0.062 C 
ATOM     25  C   UNL d   1       4.221   0.874   0.518  0.00  0.00     0.275 C 
BRANCH  23  26
ATOM     26  O   UNL d   1       6.899  -0.802   0.907  0.00  0.00    -0.395 OA
ATOM     27  HO  UNL d   1       7.543  -0.141   1.134  1.00  0.00     0.210 HD
ENDBRANCH  23  26
ENDBRANCH  19  20
ENDBRANCH  18  19
ENDBRANCH  17  18
ENDBRANCH   1  17
TORSDOF 5
