REMARK  2 active torsions:
REMARK  status: ('A' for Active; 'I' for Inactive)
REMARK    1  A    between atoms: N_2  and  C_4 
REMARK    2  A    between atoms: C_4  and  C_5 
ROOT
ATOM      1  C   UNL d   1       0.668  -0.608   0.451  0.00  0.00    -0.002 A 
ATOM      2  C   UNL d   1       0.593  -1.795  -0.270  0.00  0.00     0.098 A 
ATOM      3  N   UNL d   1      -0.627  -1.912  -0.856  0.00  0.00    -0.365 N 
ATOM      4  HN  UNL d   1      -0.960  -2.678  -1.442  1.00  0.00     0.165 HD
ATOM      5  C   UNL d   1      -1.301  -0.804  -0.498  0.00  0.00     0.043 A 
ATOM      6  C   UNL d   1      -0.546   0.013   0.297  0.00  0.00    -0.000 A 
ATOM      7  C   UNL d   1      -1.032   1.220   0.798  0.00  0.00     0.014 A 
ATOM      8  C   UNL d   1      -2.347   1.581   0.452  0.00  0.00     0.001 A 
ATOM      9  C   UNL d   1      -3.129   0.741  -0.370  0.00  0.00     0.002 A 
ATOM     10  C   UNL d   1      -2.606  -0.472  -0.856  0.00  0.00     0.030 A 
ENDROOT
BRANCH   1  11
ATOM     11  C   UNL d   1       1.854  -0.107   1.235  0.00  0.00     0.312 C 
BRANCH  11  12
ATOM     12  N   UNL d   1       2.846   0.621   0.433  0.00  0.00     0.084 N 
ATOM     13  C   UNL d   1       2.231   1.770  -0.216  0.00  0.00     0.309 C 
ATOM     14  C   UNL d   1       3.396  -0.246  -0.599  0.00  0.00     0.309 C 
ENDBRANCH  11  12
ENDBRANCH   1  11
TORSDOF 2
