REMARK  10 active torsions:
REMARK  status: ('A' for Active; 'I' for Inactive)
REMARK    1  A    between atoms: O_2  and  C_3 
REMARK    2  A    between atoms: C_5  and  N_6 
REMARK    3  A    between atoms: C_12  and  N_13 
REMARK       I    between atoms: N_13  and  C_15 
REMARK    4  A    between atoms: C_15  and  C_17 
REMARK    5  A    between atoms: C_20  and  N_21 
REMARK    6  A    between atoms: N_21  and  C_23 
REMARK    7  A    between atoms: C_28  and  N_31 
REMARK    8  A    between atoms: C_33  and  C_34 
REMARK    9  A    between atoms: C_34  and  N_35 
REMARK   10  A    between atoms: C_38  and  C_41 
ROOT
ATOM      1  C   UNL d   1      -0.112   0.056   0.192  0.00  0.00     0.684 A 
ATOM      2  N   UNL d   1      -0.647  -1.070  -0.354  0.00  0.00    -0.202 N 
ATOM      3  HN  UNL d   1      -1.658  -1.135  -0.480  1.00  0.00     0.183 HD
ATOM      4  C   UNL d   1       0.141  -2.108  -0.735  0.00  0.00     0.110 A 
ATOM      5  C   UNL d   1       1.522  -2.030  -0.569  0.00  0.00     0.068 A 
ATOM      6  C   UNL d   1       2.063  -0.870  -0.007  0.00  0.00     0.143 A 
ATOM      7  N   UNL d   1       1.233   0.145   0.361  0.00  0.00    -0.175 N 
ATOM      8  HN  UNL d   1       1.630   0.990   0.771  1.00  0.00     0.186 HD
ENDROOT
BRANCH   1   9
ATOM      9  N   UNL d   1      -0.941   1.154   0.598  0.00  0.00    -0.189 N 
ATOM     10  HN  UNL d   1      -0.461   1.949   1.020  1.00  0.00     0.184 HD
BRANCH   9  11
ATOM     11  C   UNL d   1      -2.369   1.264   0.481  0.00  0.00     0.084 A 
ATOM     12  C   UNL d   1      -3.138   0.243  -0.091  0.00  0.00     0.065 A 
ATOM     13  C   UNL d   1      -4.530   0.355  -0.211  0.00  0.00     0.064 A 
ATOM     14  C   UNL d   1      -5.171   1.525   0.253  0.00  0.00     0.060 A 
ATOM     15  C   UNL d   1      -4.397   2.537   0.840  0.00  0.00     0.070 A 
ATOM     16  C   UNL d   1      -3.005   2.418   0.956  0.00  0.00     0.097 A 
BRANCH  13  17
ATOM     17  N   UNL d   1      -5.309  -0.723  -0.754  0.00  0.00    -0.322 N 
ATOM     18  C   UNL d   1      -4.822  -1.963  -1.291  0.00  0.00     0.244 C 
ATOM     19  O   UNL d   1      -3.587  -2.205  -1.348  0.00  0.00    -0.268 OA
ATOM     20  HN  UNL d   1      -6.321  -0.593  -0.760  1.00  0.00     0.169 HD
BRANCH  18  21
ATOM     21  C   UNL d   1      -5.761  -2.970  -1.790  0.00  0.00     0.064 C 
ATOM     22  C   UNL d   1      -7.074  -2.777  -1.766  0.00  0.00     0.017 C 
ENDBRANCH  18  21
ENDBRANCH  13  17
BRANCH  14  23
ATOM     23  N   UNL d   1      -6.598   1.694   0.149  0.00  0.00    -0.375 N 
ATOM     24  C   UNL d   1      -7.303   2.555   1.101  0.00  0.00     0.149 C 
ATOM     25  C   UNL d   1      -8.763   2.114   1.199  0.00  0.00     0.187 C 
ATOM     26  O   UNL d   1      -9.341   2.089  -0.082  0.00  0.00    -0.388 OA
ATOM     27  C   UNL d   1      -8.757   1.006  -0.762  0.00  0.00     0.187 C 
ATOM     28  C   UNL d   1      -7.296   1.323  -1.083  0.00  0.00     0.149 C 
ENDBRANCH  14  23
BRANCH  16  29
ATOM     29  O   UNL d   1      -2.239   3.434   1.538  0.00  0.00    -0.354 OA
ATOM     30  C   UNL d   1      -2.808   4.633   2.046  0.00  0.00     0.210 C 
ENDBRANCH  16  29
ENDBRANCH   9  11
ENDBRANCH   1   9
BRANCH   6  31
ATOM     31  N   UNL d   1       3.479  -0.746   0.178  0.00  0.00    -0.249 N 
ATOM     32  C   UNL d   1       4.106   0.333   0.689  0.00  0.00     0.129 A 
ATOM     33  C   UNL d   1       5.456   0.047   0.693  0.00  0.00     0.016 A 
ATOM     34  C   UNL d   1       5.582  -1.225   0.153  0.00  0.00     0.068 A 
ATOM     35  N   UNL d   1       4.353  -1.686  -0.149  0.00  0.00    -0.292 N 
ATOM     36  HN  UNL d   1       4.135  -2.595  -0.556  1.00  0.00     0.187 HD
BRANCH  33  37
ATOM     37  C   UNL d   1       6.537   0.985   1.122  0.00  0.00     0.313 C 
BRANCH  37  38
ATOM     38  N   UNL d   1       6.938   1.828   0.007  0.00  0.00     0.084 N 
ATOM     39  C   UNL d   1       8.362   2.065   0.155  0.00  0.00     0.309 C 
ATOM     40  C   UNL d   1       6.285   3.113   0.189  0.00  0.00     0.309 C 
ENDBRANCH  37  38
ENDBRANCH  33  37
BRANCH  34  41
ATOM     41  C   UNL d   1       6.819  -2.001  -0.083  0.00  0.00    -0.007 A 
ATOM     42  C   UNL d   1       8.080  -1.482   0.248  0.00  0.00     0.014 A 
ATOM     43  C   UNL d   1       9.238  -2.231   0.020  0.00  0.00     0.001 A 
ATOM     44  C   UNL d   1       9.144  -3.508  -0.540  0.00  0.00     0.000 A 
ATOM     45  C   UNL d   1       7.893  -4.035  -0.872  0.00  0.00     0.001 A 
ATOM     46  C   UNL d   1       6.736  -3.284  -0.643  0.00  0.00     0.014 A 
ENDBRANCH  34  41
ENDBRANCH   6  31
TORSDOF 10
