REMARK  14 active torsions:
REMARK  status: ('A' for Active; 'I' for Inactive)
REMARK    1  A    between atoms: N_13  and  C_44 
REMARK    2  A    between atoms: C_14  and  C_15 
REMARK    3  A    between atoms: C_16  and  C_17 
REMARK    4  A    between atoms: C_18  and  C_19 
REMARK    5  A    between atoms: C_20  and  C_21 
REMARK    6  A    between atoms: N_34  and  C_35 
REMARK    7  A    between atoms: C_35  and  C_36 
REMARK    8  A    between atoms: C_36  and  C_37 
REMARK    9  A    between atoms: C_37  and  C_38 
REMARK   10  A    between atoms: C_38  and  S_39 
REMARK   11  A    between atoms: C_44  and  C_45 
REMARK   12  A    between atoms: C_45  and  C_46 
REMARK   13  A    between atoms: C_46  and  C_47 
REMARK   14  A    between atoms: C_47  and  S_48 
ROOT
ATOM      1  C   UNL d   1       0.952  -0.739  -1.761  0.00  0.00     0.000 C 
ATOM      2  C   UNL d   1      -0.339  -0.410  -1.762  0.00  0.00     0.000 C 
ENDROOT
BRANCH   2   3
ATOM      3  C   UNL d   1      -0.884   0.689  -0.950  0.00  0.00     0.000 C 
ATOM      4  C   UNL d   1      -2.172   1.028  -0.964  0.00  0.00     0.002 C 
BRANCH   4   5
ATOM      5  C   UNL d   1      -3.165   0.344  -1.801  0.00  0.00     0.026 C 
ATOM      6  C   UNL d   1      -4.470   0.637  -1.780  0.00  0.00     0.024 A 
ATOM      7  N   UNL d   1      -5.419  -0.047  -2.601  0.00  0.00    -0.349 N 
ATOM      8  C   UNL d   1      -5.146   1.681  -0.913  0.00  0.00     0.025 A 
ATOM      9  C   UNL d   1      -6.685   0.496  -2.270  0.00  0.00     0.043 A 
ATOM     10  C   UNL d   1      -6.585   1.491  -1.317  0.00  0.00    -0.006 A 
ATOM     11  C   UNL d   1      -7.916   0.099  -2.798  0.00  0.00     0.031 A 
ATOM     12  C   UNL d   1      -7.735   2.145  -0.848  0.00  0.00    -0.016 A 
ATOM     13  C   UNL d   1      -8.996   1.756  -1.374  0.00  0.00    -0.025 A 
ATOM     14  C   UNL d   1      -7.669   3.158   0.117  0.00  0.00     0.013 A 
ATOM     15  C   UNL d   1     -10.159   2.386  -0.924  0.00  0.00     0.012 A 
ATOM     16  C   UNL d   1      -9.077   0.740  -2.342  0.00  0.00     0.014 A 
ATOM     17  C   UNL d   1     -10.081   3.397   0.040  0.00  0.00     0.001 A 
ATOM     18  C   UNL d   1      -8.841   3.781   0.559  0.00  0.00     0.001 A 
ATOM     19  C   UNL d   1      -4.667   3.083  -1.257  0.00  0.00     0.027 C 
ATOM     20  C   UNL d   1      -4.955   1.384   0.567  0.00  0.00     0.027 C 
BRANCH   7  21
ATOM     21  C   UNL d   1      -5.182  -1.260  -3.380  0.00  0.00     0.129 C 
BRANCH  21  22
ATOM     22  C   UNL d   1      -5.494  -2.498  -2.552  0.00  0.00     0.021 C 
BRANCH  22  23
ATOM     23  C   UNL d   1      -4.442  -2.690  -1.476  0.00  0.00     0.019 C 
BRANCH  23  24
ATOM     24  C   UNL d   1      -4.838  -3.838  -0.570  0.00  0.00     0.165 C 
BRANCH  24  25
ATOM     25  S   UNL d   1      -3.695  -3.950   0.791  0.00  0.00     0.101 S 
ATOM     26  O   UNL d   1      -2.312  -4.231   0.274  0.00  0.00    -0.595 OA
ATOM     27  O   UNL d   1      -3.690  -2.655   1.556  0.00  0.00    -0.595 OA
ATOM     28  O   UNL d   1      -4.170  -5.195   1.813  0.00  0.00    -0.595 OA
ENDBRANCH  24  25
ENDBRANCH  23  24
ENDBRANCH  22  23
ENDBRANCH  21  22
ENDBRANCH   7  21
ENDBRANCH   4   5
ENDBRANCH   2   3
BRANCH   1  29
ATOM     29  C   UNL d   1       1.950  -0.033  -0.958  0.00  0.00     0.002 C 
ATOM     30  C   UNL d   1       3.222  -0.407  -0.996  0.00  0.00     0.026 C 
BRANCH  30  31
ATOM     31  C   UNL d   1       4.270   0.279  -0.214  0.00  0.00     0.024 A 
ATOM     32  C   UNL d   1       4.041   1.472   0.699  0.00  0.00     0.025 A 
ATOM     33  C   UNL d   1       3.516   2.672  -0.073  0.00  0.00     0.027 C 
ATOM     34  C   UNL d   1       5.442   1.710   1.178  0.00  0.00    -0.006 A 
ATOM     35  C   UNL d   1       3.121   1.117   1.856  0.00  0.00     0.027 C 
ATOM     36  C   UNL d   1       6.261   0.775   0.594  0.00  0.00     0.043 A 
ATOM     37  C   UNL d   1       5.961   2.672   2.055  0.00  0.00    -0.016 A 
ATOM     38  C   UNL d   1       7.636   0.738   0.837  0.00  0.00     0.031 A 
ATOM     39  N   UNL d   1       5.519  -0.087  -0.251  0.00  0.00    -0.349 N 
ATOM     40  C   UNL d   1       8.182   1.691   1.712  0.00  0.00     0.014 A 
ATOM     41  C   UNL d   1       7.356   2.655   2.321  0.00  0.00    -0.025 A 
ATOM     42  C   UNL d   1       7.907   3.600   3.189  0.00  0.00     0.012 A 
ATOM     43  C   UNL d   1       7.086   4.559   3.793  0.00  0.00     0.001 A 
ATOM     44  C   UNL d   1       5.712   4.577   3.530  0.00  0.00     0.001 A 
ATOM     45  C   UNL d   1       5.148   3.636   2.664  0.00  0.00     0.013 A 
BRANCH  39  46
ATOM     46  C   UNL d   1       6.066  -1.217  -0.998  0.00  0.00     0.129 C 
BRANCH  46  47
ATOM     47  C   UNL d   1       5.860  -2.516  -0.233  0.00  0.00     0.021 C 
BRANCH  47  48
ATOM     48  C   UNL d   1       6.780  -2.574   0.974  0.00  0.00     0.019 C 
BRANCH  48  49
ATOM     49  C   UNL d   1       6.548  -3.853   1.758  0.00  0.00     0.165 C 
BRANCH  49  50
ATOM     50  S   UNL d   1       7.388  -5.232   1.000  0.00  0.00     0.101 S 
ATOM     51  O   UNL d   1       6.774  -5.535  -0.339  0.00  0.00    -0.595 OA
ATOM     52  O   UNL d   1       8.843  -4.904   0.821  0.00  0.00    -0.595 OA
ATOM     53  O   UNL d   1       7.241  -6.579   1.993  0.00  0.00    -0.595 OA
ENDBRANCH  49  50
ENDBRANCH  48  49
ENDBRANCH  47  48
ENDBRANCH  46  47
ENDBRANCH  39  46
ENDBRANCH  30  31
ENDBRANCH   1  29
TORSDOF 14
