REMARK  2 active torsions:
REMARK  status: ('A' for Active; 'I' for Inactive)
REMARK    1  A    between atoms: C_3  and  C_2 
REMARK    2  A    between atoms: C_20  and  O_23 
ROOT
ATOM      1  C   UNL d   1      -1.975   0.314  -0.092  0.00  0.00     0.024 C 
ATOM      2  C   UNL d   1      -1.327   1.627   0.278  0.00  0.00    -0.012 C 
ATOM      3  C   UNL d   1      -0.007   1.682   0.521  0.00  0.00     0.005 C 
ATOM      4  C   UNL d   1       0.817   0.439   0.520  0.00  0.00    -0.047 C 
ATOM      5  C   UNL d   1       2.135   0.473   0.251  0.00  0.00    -0.045 C 
ATOM      6  C   UNL d   1       2.845   1.776  -0.018  0.00  0.00     0.047 C 
ATOM      7  C   UNL d   1       4.306   1.711   0.426  0.00  0.00     0.087 C 
ATOM      8  C   UNL d   1       4.964   0.459  -0.071  0.00  0.00     0.150 C 
ATOM      9  O   UNL d   1       6.194   0.460  -0.338  0.00  0.00    -0.293 OA
ATOM     10  C   UNL d   1       4.195  -0.791  -0.169  0.00  0.00     0.057 C 
ATOM     11  C   UNL d   1       2.871  -0.801  -0.002  0.00  0.00    -0.048 C 
ATOM     12  C   UNL d   1       2.145  -2.120  -0.052  0.00  0.00     0.040 C 
ATOM     13  C   UNL d   1       0.638  -1.935  -0.236  0.00  0.00     0.014 C 
ATOM     14  C   UNL d   1       0.145  -0.904   0.771  0.00  0.00     0.025 C 
ATOM     15  C   UNL d   1      -1.376  -0.741   0.813  0.00  0.00     0.010 C 
ATOM     16  C   UNL d   1      -2.326  -1.911   0.895  0.00  0.00     0.010 C 
ATOM     17  C   UNL d   1      -3.695  -1.287   0.597  0.00  0.00     0.053 C 
ATOM     18  C   UNL d   1      -3.473   0.200   0.277  0.00  0.00     0.131 C 
ATOM     19  C   UNL d   1      -4.385   0.640  -0.791  0.00  0.00    -0.078 C 
ATOM     20  C   UNL d   1      -5.134   1.001  -1.665  0.00  0.00     0.015 C 
ENDROOT
BRANCH  18  21
ATOM     21  O   UNL d   1      -3.752   0.940   1.432  0.00  0.00    -0.376 OA
ATOM     22  HO  UNL d   1      -4.671   0.870   1.659  1.00  0.00     0.211 HD
ENDBRANCH  18  21
BRANCH   1  23
ATOM     23  C   UNL d   1      -1.665   0.056  -1.593  0.00  0.00     0.013 C 
ATOM     24  C   UNL d   1      -2.140  -1.286  -2.135  0.00  0.00     0.006 C 
ENDBRANCH   1  23
TORSDOF 2
