REMARK  11 active torsions:
REMARK  status: ('A' for Active; 'I' for Inactive)
REMARK    1  A    between atoms: C_2  and  N_27 
REMARK    2  A    between atoms: C_3  and  N_27 
REMARK    3  A    between atoms: C_5  and  C_6 
REMARK    4  A    between atoms: C_5  and  N_27 
REMARK    5  A    between atoms: C_7  and  C_8 
REMARK    6  A    between atoms: C_8  and  O_9 
REMARK    7  A    between atoms: O_9  and  C_10 
REMARK    8  A    between atoms: C_10  and  C_12 
REMARK    9  A    between atoms: C_12  and  C_13 
REMARK   10  A    between atoms: C_12  and  C_19 
REMARK   11  A    between atoms: C_12  and  O_25 
ROOT
ATOM      1  C   UNL d   1      -1.146  -0.455   1.775  0.00  0.00     0.176 C 
ENDROOT
BRANCH   1   2
ATOM      2  C   UNL d   1      -0.433  -1.647   1.177  0.00  0.00     0.299 C 
ATOM      3  O   UNL d   1      -1.066  -2.484   0.474  0.00  0.00    -0.261 OA
BRANCH   2   4
ATOM      4  O   UNL d   1       0.916  -1.867   1.480  0.00  0.00    -0.307 OA
BRANCH   4   5
ATOM      5  C   UNL d   1       1.677  -2.898   0.863  0.00  0.00     0.272 C 
BRANCH   5   6
ATOM      6  C   UNL d   1       2.009  -2.513  -0.511  0.00  0.00    -0.078 C 
ATOM      7  C   UNL d   1       2.270  -2.176  -1.638  0.00  0.00    -0.074 C 
BRANCH   7   8
ATOM      8  C   UNL d   1       2.579  -1.749  -3.016  0.00  0.00     0.365 C 
BRANCH   8   9
ATOM      9  N   UNL d   1       2.514  -0.292  -3.213  0.00  0.00     0.098 N 
BRANCH   9  10
ATOM     10  C   UNL d   1       3.706   0.387  -2.689  0.00  0.00     0.269 C 
ATOM     11  C   UNL d   1       3.750   0.460  -1.165  0.00  0.00     0.037 C 
ENDBRANCH   9  10
BRANCH   9  12
ATOM     12  C   UNL d   1       1.277   0.302  -2.703  0.00  0.00     0.269 C 
ATOM     13  C   UNL d   1       0.190   0.225  -3.756  0.00  0.00     0.037 C 
ENDBRANCH   9  12
ENDBRANCH   8   9
ENDBRANCH   7   8
ENDBRANCH   5   6
ENDBRANCH   4   5
ENDBRANCH   2   4
ENDBRANCH   1   2
BRANCH   1  14
ATOM     14  C   UNL d   1      -0.217   0.752   1.842  0.00  0.00    -0.014 A 
ATOM     15  C   UNL d   1       0.573   1.114   0.736  0.00  0.00     0.011 A 
ATOM     16  C   UNL d   1       1.395   2.242   0.786  0.00  0.00     0.001 A 
ATOM     17  C   UNL d   1       1.431   3.029   1.938  0.00  0.00     0.000 A 
ATOM     18  C   UNL d   1       0.639   2.692   3.038  0.00  0.00     0.001 A 
ATOM     19  C   UNL d   1      -0.184   1.564   2.988  0.00  0.00     0.011 A 
ENDBRANCH   1  14
BRANCH   1  20
ATOM     20  C   UNL d   1      -2.428  -0.111   0.977  0.00  0.00     0.035 C 
ATOM     21  C   UNL d   1      -2.161   0.221  -0.507  0.00  0.00     0.008 C 
ATOM     22  C   UNL d   1      -3.240   1.105  -1.142  0.00  0.00     0.001 C 
ATOM     23  C   UNL d   1      -4.609   0.816  -0.535  0.00  0.00     0.000 C 
ATOM     24  C   UNL d   1      -4.636   1.139   0.964  0.00  0.00     0.001 C 
ATOM     25  C   UNL d   1      -3.278   0.969   1.657  0.00  0.00     0.008 C 
ENDBRANCH   1  20
BRANCH   1  26
ATOM     26  O   UNL d   1      -1.527  -0.825   3.070  0.00  0.00    -0.374 OA
ATOM     27  HO  UNL d   1      -1.975  -0.077   3.446  1.00  0.00     0.211 HD
ENDBRANCH   1  26
TORSDOF 11
