REMARK  15 active torsions:
REMARK  status: ('A' for Active; 'I' for Inactive)
REMARK    1  A    between atoms: N_2  and  C_3 
REMARK       I    between atoms: N_2  and  C_10 
REMARK    2  A    between atoms: C_3  and  C_4 
REMARK    3  A    between atoms: C_4  and  C_5 
REMARK    4  A    between atoms: C_4  and  O_8 
REMARK    5  A    between atoms: C_5  and  O_6 
REMARK    6  A    between atoms: C_10  and  C_12 
REMARK    7  A    between atoms: C_14  and  C_27 
REMARK    8  A    between atoms: C_16  and  N_19 
REMARK       I    between atoms: N_19  and  C_21 
REMARK    9  A    between atoms: C_21  and  C_23 
REMARK   10  A    between atoms: C_23  and  O_24 
REMARK       I    between atoms: C_27  and  N_29 
REMARK   11  A    between atoms: N_29  and  C_31 
REMARK   12  A    between atoms: C_31  and  C_32 
REMARK   13  A    between atoms: C_32  and  C_33 
REMARK   14  A    between atoms: C_32  and  O_36 
REMARK   15  A    between atoms: C_33  and  O_34 
ROOT
ATOM      1  C   UNL d   1       1.076  -1.221   0.965  0.00  0.00     0.068 A 
ATOM      2  C   UNL d   1      -0.094  -1.489   0.225  0.00  0.00     0.040 A 
ATOM      3  C   UNL d   1      -0.922  -0.425  -0.191  0.00  0.00     0.068 A 
ATOM      4  C   UNL d   1      -0.576   0.903   0.133  0.00  0.00     0.051 A 
ATOM      5  C   UNL d   1       0.595   1.162   0.867  0.00  0.00     0.070 A 
ATOM      6  C   UNL d   1       1.409   0.105   1.298  0.00  0.00     0.051 A 
ATOM      7  I   UNL d   1       3.182   0.546   2.402  0.00  0.00    -0.041 I 
ATOM      8  I   UNL d   1      -1.793   2.542  -0.498  0.00  0.00    -0.041 I 
ATOM      9  I   UNL d   1      -0.654  -3.517  -0.177  0.00  0.00    -0.042 I 
ENDROOT
BRANCH   1  10
ATOM     10  C   UNL d   1       1.973  -2.324   1.363  0.00  0.00     0.256 C 
ATOM     11  N   UNL d   1       2.837  -2.959   0.404  0.00  0.00    -0.350 N 
ATOM     12  C   UNL d   1       3.620  -4.124   0.784  0.00  0.00     0.153 C 
ATOM     13  O   UNL d   1       1.981  -2.699   2.567  0.00  0.00    -0.267 OA
BRANCH  11  14
ATOM     14  C   UNL d   1       2.897  -2.519  -0.985  0.00  0.00     0.159 C 
BRANCH  14  15
ATOM     15  C   UNL d   1       3.600  -1.174  -1.091  0.00  0.00     0.159 C 
BRANCH  15  16
ATOM     16  C   UNL d   1       3.302  -0.533  -2.432  0.00  0.00     0.197 C 
BRANCH  16  17
ATOM     17  O   UNL d   1       1.973  -0.111  -2.472  0.00  0.00    -0.398 OA
ATOM     18  HO  UNL d   1       1.786   0.291  -3.312  1.00  0.00     0.209 HD
ENDBRANCH  16  17
ENDBRANCH  15  16
BRANCH  15  19
ATOM     19  O   UNL d   1       4.977  -1.354  -0.956  0.00  0.00    -0.392 OA
ATOM     20  HO  UNL d   1       5.416  -0.514  -1.022  1.00  0.00     0.210 HD
ENDBRANCH  15  19
ENDBRANCH  14  15
ENDBRANCH  11  14
ENDBRANCH   1  10
BRANCH   5  21
ATOM     21  N   UNL d   1       0.966   2.508   1.181  0.00  0.00    -0.323 N 
ATOM     22  C   UNL d   1       1.584   3.378   0.228  0.00  0.00     0.245 C 
ATOM     23  O   UNL d   1       1.860   2.969  -0.931  0.00  0.00    -0.271 OA
ATOM     24  HN  UNL d   1       0.784   2.861   2.120  1.00  0.00     0.169 HD
BRANCH  22  25
ATOM     25  C   UNL d   1       1.874   4.787   0.600  0.00  0.00     0.270 C 
BRANCH  25  26
ATOM     26  O   UNL d   1       0.744   5.573   0.374  0.00  0.00    -0.387 OA
ATOM     27  C   UNL d   1       1.113   6.848   0.799  0.00  0.00     0.202 C 
ENDBRANCH  25  26
ENDBRANCH  22  25
ENDBRANCH   5  21
BRANCH   3  28
ATOM     28  C   UNL d   1      -2.147  -0.702  -0.962  0.00  0.00     0.254 C 
ATOM     29  O   UNL d   1      -2.064  -1.233  -2.103  0.00  0.00    -0.268 OA
ATOM     30  N   UNL d   1      -3.423  -0.380  -0.408  0.00  0.00    -0.354 N 
ATOM     31  HN  UNL d   1      -3.467   0.045   0.519  1.00  0.00     0.162 HD
BRANCH  30  32
ATOM     32  C   UNL d   1      -4.662  -0.637  -1.125  0.00  0.00     0.156 C 
BRANCH  32  33
ATOM     33  C   UNL d   1      -5.850  -0.200  -0.283  0.00  0.00     0.159 C 
BRANCH  33  34
ATOM     34  C   UNL d   1      -6.039  -1.109   0.925  0.00  0.00     0.197 C 
BRANCH  34  35
ATOM     35  O   UNL d   1      -6.334  -2.413   0.521  0.00  0.00    -0.398 OA
ATOM     36  HO  UNL d   1      -6.452  -2.980   1.274  1.00  0.00     0.209 HD
ENDBRANCH  34  35
ENDBRANCH  33  34
BRANCH  33  37
ATOM     37  O   UNL d   1      -7.005  -0.198  -1.065  0.00  0.00    -0.392 OA
ATOM     38  HO  UNL d   1      -7.747   0.076  -0.539  1.00  0.00     0.210 HD
ENDBRANCH  33  37
ENDBRANCH  32  33
ENDBRANCH  30  32
ENDBRANCH   3  28
TORSDOF 15
