REMARK  6 active torsions:
REMARK  status: ('A' for Active; 'I' for Inactive)
REMARK    1  A    between atoms: C_3  and  C_9 
REMARK    2  A    between atoms: C_9  and  O_10 
REMARK    3  A    between atoms: O_10  and  C_11 
REMARK    4  A    between atoms: C_11  and  C_12 
REMARK    5  A    between atoms: C_11  and  C_19 
REMARK    6  A    between atoms: C_12  and  N_13 
ROOT
ATOM      1  C   UNL d   1      -0.890  -1.497  -0.681  0.00  0.00     0.174 C 
ENDROOT
BRANCH   1   2
ATOM      2  O   UNL d   1       0.037  -1.536   0.365  0.00  0.00    -0.375 OA
BRANCH   2   3
ATOM      3  C   UNL d   1       1.232  -1.972  -0.213  0.00  0.00     0.209 C 
BRANCH   3   4
ATOM      4  C   UNL d   1       2.359  -1.123   0.272  0.00  0.00    -0.013 A 
ATOM      5  C   UNL d   1       2.852  -1.327   1.566  0.00  0.00     0.012 A 
ATOM      6  C   UNL d   1       3.883  -0.526   2.063  0.00  0.00     0.024 A 
ATOM      7  C   UNL d   1       4.423   0.488   1.268  0.00  0.00     0.035 A 
ATOM      8  C   UNL d   1       3.933   0.700  -0.023  0.00  0.00     0.048 A 
ATOM      9 CL   UNL d   1       5.714   1.493   1.890  0.00  0.00    -0.084 Cl
ATOM     10  C   UNL d   1       2.901  -0.099  -0.526  0.00  0.00     0.044 A 
ATOM     11 CL   UNL d   1       2.325   0.205  -2.157  0.00  0.00    -0.084 Cl
ENDBRANCH   3   4
ENDBRANCH   2   3
ENDBRANCH   1   2
BRANCH   1  12
ATOM     12  C   UNL d   1      -2.219  -2.138  -0.278  0.00  0.00     0.166 C 
BRANCH  12  13
ATOM     13  N   UNL d   1      -2.846  -1.444   0.837  0.00  0.00    -0.349 N 
ATOM     14  C   UNL d   1      -3.789  -0.493   0.749  0.00  0.00     0.182 A 
ATOM     15  N   UNL d   1      -4.159  -0.067   1.971  0.00  0.00    -0.361 N 
ATOM     16  C   UNL d   1      -3.419  -0.784   2.843  0.00  0.00     0.106 A 
ATOM     17  HN  UNL d   1      -4.853   0.648   2.191  1.00  0.00     0.166 HD
ATOM     18  C   UNL d   1      -2.599  -1.646   2.140  0.00  0.00     0.108 A 
ENDBRANCH  12  13
ENDBRANCH   1  12
BRANCH   1  19
ATOM     19  C   UNL d   1      -1.058  -0.121  -1.278  0.00  0.00    -0.006 A 
ATOM     20  C   UNL d   1      -0.980   1.086  -0.539  0.00  0.00     0.044 A 
ATOM     21  C   UNL d   1      -1.158   2.309  -1.192  0.00  0.00     0.048 A 
ATOM     22 CL   UNL d   1      -0.651   1.143   1.187  0.00  0.00    -0.084 Cl
ATOM     23  C   UNL d   1      -1.419   2.352  -2.562  0.00  0.00     0.035 A 
ATOM     24  C   UNL d   1      -1.504   1.166  -3.292  0.00  0.00     0.024 A 
ATOM     25 CL   UNL d   1      -1.638   3.891  -3.364  0.00  0.00    -0.084 Cl
ATOM     26  C   UNL d   1      -1.327  -0.061  -2.652  0.00  0.00     0.013 A 
ENDBRANCH   1  19
TORSDOF 6
