REMARK  12 active torsions:
REMARK  status: ('A' for Active; 'I' for Inactive)
REMARK    1  A    between atoms: C_2  and  C_3 
REMARK    2  A    between atoms: C_3  and  C_4 
REMARK    3  A    between atoms: C_4  and  C_5 
REMARK    4  A    between atoms: C_5  and  C_6 
REMARK    5  A    between atoms: C_6  and  C_7 
REMARK    6  A    between atoms: C_6  and  O_25 
REMARK    7  A    between atoms: C_9  and  C_8 
REMARK    8  A    between atoms: C_10  and  O_23 
REMARK    9  A    between atoms: C_16  and  C_17 
REMARK   10  A    between atoms: C_17  and  C_18 
REMARK   11  A    between atoms: C_18  and  C_19 
REMARK   12  A    between atoms: C_19  and  C_20 
ROOT
ATOM      1  C   UNL d   1      -0.667   1.185  -1.139  0.00  0.00     0.043 C 
ATOM      2  C   UNL d   1      -0.176   2.569  -0.715  0.00  0.00     0.128 C 
ATOM      3  C   UNL d   1       0.068   2.489   0.775  0.00  0.00     0.065 C 
ATOM      4  C   UNL d   1       0.439   1.042   1.054  0.00  0.00     0.136 A 
ATOM      5  C   UNL d   1      -0.061   0.208  -0.141  0.00  0.00     0.031 A 
ATOM      6  C   UNL d   1       1.166  -0.467  -0.756  0.00  0.00     0.072 A 
ATOM      7  C   UNL d   1       2.278   0.054   0.061  0.00  0.00     0.043 A 
ATOM      8  C   UNL d   1       3.554  -0.257  -0.146  0.00  0.00     0.005 C 
ATOM      9  O   UNL d   1       1.848   0.900   1.060  0.00  0.00    -0.350 OA
ENDROOT
BRANCH   1  10
ATOM     10  C   UNL d   1      -2.168   1.043  -1.175  0.00  0.00    -0.021 C 
ATOM     11  C   UNL d   1      -2.936   1.209  -0.091  0.00  0.00     0.001 C 
BRANCH  11  12
ATOM     12  C   UNL d   1      -4.428   1.061  -0.138  0.00  0.00     0.140 C 
BRANCH  12  13
ATOM     13  C   UNL d   1      -4.876  -0.390  -0.303  0.00  0.00     0.036 C 
BRANCH  13  14
ATOM     14  C   UNL d   1      -4.598  -0.930  -1.700  0.00  0.00     0.003 C 
BRANCH  14  15
ATOM     15  C   UNL d   1      -5.064  -2.373  -1.820  0.00  0.00    -0.000 C 
BRANCH  15  16
ATOM     16  C   UNL d   1      -6.549  -2.447  -2.141  0.00  0.00    -0.005 C 
ATOM     17  C   UNL d   1      -7.377  -2.333  -0.876  0.00  0.00     0.005 C 
ENDBRANCH  15  16
ENDBRANCH  14  15
ENDBRANCH  13  14
ENDBRANCH  12  13
BRANCH  12  18
ATOM     18  O   UNL d   1      -4.986   1.881  -1.123  0.00  0.00    -0.392 OA
ATOM     19  HO  UNL d   1      -4.707   2.783  -1.020  1.00  0.00     0.210 HD
ENDBRANCH  12  18
ENDBRANCH  11  12
ENDBRANCH   1  10
BRANCH   2  20
ATOM     20  O   UNL d   1      -1.088   3.583  -1.016  0.00  0.00    -0.395 OA
ATOM     21  HO  UNL d   1      -0.783   4.443  -0.753  1.00  0.00     0.210 HD
ENDBRANCH   2  20
BRANCH   8  22
ATOM     22  C   UNL d   1       4.658   0.288   0.704  0.00  0.00     0.030 C 
BRANCH  22  23
ATOM     23  C   UNL d   1       4.655  -0.346   2.091  0.00  0.00     0.014 C 
BRANCH  23  24
ATOM     24  C   UNL d   1       5.137  -1.790   2.047  0.00  0.00     0.113 C 
BRANCH  24  25
ATOM     25  C   UNL d   1       6.614  -1.849   1.852  0.00  0.00     0.172 C 
ATOM     26  O   UNL d   1       7.090  -2.057   0.706  0.00  0.00    -0.648 OA
ATOM     27  O   UNL d   1       7.466  -1.648   2.930  0.00  0.00    -0.648 OA
ENDBRANCH  24  25
ENDBRANCH  23  24
ENDBRANCH  22  23
ENDBRANCH   8  22
TORSDOF 12
