REMARK  7 active torsions:
REMARK  status: ('A' for Active; 'I' for Inactive)
REMARK       I    between atoms: C_1  and  N_2 
REMARK    1  A    between atoms: C_1  and  C_13 
REMARK    2  A    between atoms: N_2  and  C_4 
REMARK    3  A    between atoms: C_4  and  C_5 
REMARK    4  A    between atoms: N_6  and  C_7 
REMARK    5  A    between atoms: C_14  and  O_15 
REMARK    6  A    between atoms: C_20  and  S_21 
REMARK    7  A    between atoms: S_21  and  C_22 
ROOT
ATOM      1  C   UNL d   1      -0.795  -0.311   0.392  0.00  0.00     0.066 A 
ATOM      2  C   UNL d   1      -1.154  -1.617   0.799  0.00  0.00     0.085 A 
ATOM      3  C   UNL d   1      -2.465  -2.071   0.579  0.00  0.00     0.066 A 
ATOM      4  C   UNL d   1      -3.416  -1.256  -0.035  0.00  0.00     0.070 A 
ATOM      5  N   UNL d   1      -4.733  -1.759  -0.238  0.00  0.00    -0.101 NA
ATOM      6  C   UNL d   1      -3.065   0.039  -0.444  0.00  0.00     0.084 A 
ATOM      7  C   UNL d   1      -1.762   0.496  -0.227  0.00  0.00     0.045 A 
ENDROOT
BRANCH   1   8
ATOM      8  C   UNL d   1       0.566   0.248   0.586  0.00  0.00     0.254 C 
ATOM      9  N   UNL d   1       1.584  -0.501   1.255  0.00  0.00    -0.355 N 
ATOM     10  HN  UNL d   1       1.347  -1.420   1.630  1.00  0.00     0.162 HD
ATOM     11  O   UNL d   1       0.829   1.407   0.158  0.00  0.00    -0.268 OA
BRANCH   9  12
ATOM     12  C   UNL d   1       2.944  -0.008   1.425  0.00  0.00     0.158 C 
BRANCH  12  13
ATOM     13  C   UNL d   1       3.694  -0.048   0.101  0.00  0.00     0.240 C 
ATOM     14  N   UNL d   1       4.941   0.700   0.222  0.00  0.00     0.094 N 
ATOM     15  C   UNL d   1       5.969  -0.121  -0.400  0.00  0.00     0.273 C 
ATOM     16  C   UNL d   1       5.527  -1.558  -0.289  0.00  0.00     0.032 C 
ATOM     17  C   UNL d   1       4.024  -1.483  -0.274  0.00  0.00     0.039 C 
BRANCH  14  18
ATOM     18  C   UNL d   1       4.799   1.899  -0.589  0.00  0.00     0.268 C 
ATOM     19  C   UNL d   1       5.569   3.041   0.044  0.00  0.00     0.037 C 
ENDBRANCH  14  18
ENDBRANCH  12  13
ENDBRANCH   9  12
ENDBRANCH   1   8
BRANCH   2  20
ATOM     20  O   UNL d   1      -0.214  -2.454   1.414  0.00  0.00    -0.355 OA
ATOM     21  C   UNL d   1      -0.516  -3.775   1.843  0.00  0.00     0.210 C 
ENDBRANCH   2  20
BRANCH   6  22
ATOM     22  S   UNL d   1      -4.234   1.100  -1.225  0.00  0.00     0.177 S 
ATOM     23  O   UNL d   1      -4.722   0.456  -2.493  0.00  0.00    -0.223 OA
ATOM     24  O   UNL d   1      -5.393   1.333  -0.297  0.00  0.00    -0.223 OA
BRANCH  22  25
ATOM     25  C   UNL d   1      -3.483   2.668  -1.622  0.00  0.00     0.141 C 
ATOM     26  C   UNL d   1      -4.493   3.576  -2.294  0.00  0.00     0.021 C 
ENDBRANCH  22  25
ENDBRANCH   6  22
TORSDOF 7
