REMARK  2 active torsions:
REMARK  status: ('A' for Active; 'I' for Inactive)
REMARK    1  A    between atoms: C_2  and  O_4 
REMARK    2  A    between atoms: C_5  and  O_4 
ROOT
ATOM      1  C   UNL d   1       3.551   0.180   0.354  0.00  0.00     0.136 C 
ATOM      2  C   UNL d   1       2.875  -0.668   1.433  0.00  0.00     0.034 C 
ATOM      3  C   UNL d   1       1.474  -1.087   0.976  0.00  0.00     0.016 C 
ATOM      4  C   UNL d   1       0.575   0.121   0.668  0.00  0.00    -0.017 C 
ATOM      5  C   UNL d   1      -0.733  -0.382   0.016  0.00  0.00     0.003 C 
ATOM      6  C   UNL d   1      -1.592  -1.246   0.977  0.00  0.00     0.007 C 
ATOM      7  C   UNL d   1      -2.947  -1.653   0.366  0.00  0.00     0.018 C 
ATOM      8  C   UNL d   1      -3.679  -0.410  -0.127  0.00  0.00     0.021 C 
ATOM      9  C   UNL d   1      -2.809   0.228  -1.186  0.00  0.00     0.006 C 
ATOM     10  C   UNL d   1      -1.510   0.792  -0.625  0.00  0.00    -0.001 C 
ATOM     11  C   UNL d   1      -0.660   1.370  -1.751  0.00  0.00     0.033 C 
ATOM     12  C   UNL d   1       0.736   1.692  -1.293  0.00  0.00    -0.023 C 
ATOM     13  C   UNL d   1       1.326   1.072  -0.257  0.00  0.00    -0.072 C 
ATOM     14  C   UNL d   1       2.737   1.442   0.088  0.00  0.00     0.067 C 
ATOM     15  C   UNL d   1      -3.724   1.069  -2.060  0.00  0.00     0.013 C 
ATOM     16  C   UNL d   1      -5.004   0.232  -2.122  0.00  0.00     0.079 C 
ATOM     17  C   UNL d   1      -4.916  -0.643  -0.912  0.00  0.00     0.135 C 
ATOM     18  O   UNL d   1      -5.793  -1.427  -0.586  0.00  0.00    -0.297 OA
ATOM     19  C   UNL d   1      -4.001   0.538   1.030  0.00  0.00     0.024 C 
ATOM     20  C   UNL d   1       0.258   0.861   1.968  0.00  0.00     0.020 C 
ENDROOT
BRANCH   1  21
ATOM     21  O   UNL d   1       4.862   0.542   0.767  0.00  0.00    -0.316 OA
BRANCH  21  22
ATOM     22  C   UNL d   1       5.930  -0.357   0.741  0.00  0.00     0.255 C 
ATOM     23  C   UNL d   1       7.269   0.084   1.212  0.00  0.00     0.126 C 
ATOM     24  O   UNL d   1       5.776  -1.535   0.320  0.00  0.00    -0.266 OA
ENDBRANCH  21  22
ENDBRANCH   1  21
TORSDOF 2
