REMARK  3 active torsions:
REMARK  status: ('A' for Active; 'I' for Inactive)
REMARK    1  A    between atoms: C_3  and  C_9 
REMARK    2  A    between atoms: C_9  and  C_10 
REMARK    3  A    between atoms: C_9  and  N_18 
ROOT
ATOM      1  C   UNL d   1      -3.476   0.752  -1.003  0.00  0.00     0.023 A 
ATOM      2  C   UNL d   1      -2.314   0.083  -1.400  0.00  0.00     0.011 A 
ATOM      3  C   UNL d   1      -1.305  -0.188  -0.470  0.00  0.00    -0.029 A 
ATOM      4  C   UNL d   1      -1.465   0.218   0.863  0.00  0.00     0.011 A 
ATOM      5  C   UNL d   1      -2.627   0.886   1.260  0.00  0.00     0.023 A 
ATOM      6  C   UNL d   1      -3.632   1.154   0.327  0.00  0.00     0.044 A 
ATOM      7  C   UNL d   1      -4.825   1.841   0.734  0.00  0.00     0.099 C 
ATOM      8  N   UNL d   1      -5.787   2.394   1.062  0.00  0.00    -0.191 NA
ENDROOT
BRANCH   3   9
ATOM      9  C   UNL d   1      -0.068  -0.904  -0.929  0.00  0.00     0.175 C 
BRANCH   9  10
ATOM     10  C   UNL d   1       1.171  -0.057  -0.889  0.00  0.00    -0.029 A 
ATOM     11  C   UNL d   1       1.717   0.386   0.326  0.00  0.00     0.011 A 
ATOM     12  C   UNL d   1       2.869   1.177   0.331  0.00  0.00     0.023 A 
ATOM     13  C   UNL d   1       3.481   1.530  -0.875  0.00  0.00     0.044 A 
ATOM     14  C   UNL d   1       2.939   1.091  -2.087  0.00  0.00     0.023 A 
ATOM     15  C   UNL d   1       4.664   2.342  -0.870  0.00  0.00     0.099 C 
ATOM     16  C   UNL d   1       1.787   0.300  -2.093  0.00  0.00     0.011 A 
ATOM     17  N   UNL d   1       5.618   2.998  -0.865  0.00  0.00    -0.191 NA
ENDBRANCH   9  10
BRANCH   9  18
ATOM     18  N   UNL d   1       0.113  -2.194  -0.266  0.00  0.00    -0.273 N 
ATOM     19  N   UNL d   1       0.067  -3.352  -0.896  0.00  0.00    -0.292 N 
ATOM     20  C   UNL d   1       0.276  -4.295   0.043  0.00  0.00     0.198 A 
ATOM     21  HN  UNL d   1      -0.093  -3.502  -1.892  1.00  0.00     0.188 HD
ATOM     22  N   UNL d   1       0.453  -3.744   1.264  0.00  0.00    -0.346 N 
ATOM     23  C   UNL d   1       0.345  -2.420   1.038  0.00  0.00     0.202 A 
ATOM     24  HN  UNL d   1       0.628  -4.219   2.150  1.00  0.00     0.167 HD
ENDBRANCH   9  18
ENDBRANCH   3   9
TORSDOF 3
