REMARK  1 active torsions:
REMARK  status: ('A' for Active; 'I' for Inactive)
REMARK    1  A    between atoms: C_10  and  O_12 
ROOT
ATOM      1  C   UNL d   1      -3.393   0.307   1.070  0.00  0.00     0.018 C 
ATOM      2  C   UNL d   1      -2.388  -0.556   0.285  0.00  0.00    -0.009 C 
ATOM      3  C   UNL d   1      -1.469  -1.283   1.276  0.00  0.00     0.013 C 
ATOM      4  C   UNL d   1      -0.624  -0.274   2.083  0.00  0.00     0.007 C 
ATOM      5  C   UNL d   1       0.134   0.740   1.191  0.00  0.00     0.001 C 
ATOM      6  C   UNL d   1      -0.794   1.393   0.132  0.00  0.00    -0.005 C 
ATOM      7  C   UNL d   1      -1.532   0.295  -0.631  0.00  0.00     0.001 C 
ATOM      8  C   UNL d   1      -2.438   0.683  -1.780  0.00  0.00     0.009 C 
ATOM      9  C   UNL d   1      -3.362  -0.528  -1.942  0.00  0.00     0.038 C 
ATOM     10  C   UNL d   1      -3.128  -1.443  -0.733  0.00  0.00     0.062 C 
ATOM     11  C   UNL d   1      -2.295  -2.638  -1.186  0.00  0.00     0.046 C 
ATOM     12  C   UNL d   1      -0.041   2.363  -0.785  0.00  0.00     0.006 C 
ATOM     13  C   UNL d   1       1.214   1.733  -1.374  0.00  0.00     0.006 C 
ATOM     14  C   UNL d   1       2.136   1.289  -0.246  0.00  0.00     0.005 C 
ATOM     15  C   UNL d   1       1.479   0.204   0.632  0.00  0.00    -0.014 C 
ATOM     16  C   UNL d   1       2.425  -0.060   1.806  0.00  0.00     0.188 C 
ATOM     17  O   UNL d   1       3.747  -0.382   1.371  0.00  0.00    -0.321 OA
ATOM     18  C   UNL d   1       4.332   0.203   0.244  0.00  0.00     0.259 C 
ATOM     19  O   UNL d   1       5.572   0.094   0.061  0.00  0.00    -0.265 OA
ATOM     20  C   UNL d   1       3.490   0.858  -0.808  0.00  0.00     0.116 C 
ATOM     21  C   UNL d   1       1.284  -1.094  -0.158  0.00  0.00     0.018 C 
ENDROOT
BRANCH  10  22
ATOM     22  O   UNL d   1      -4.350  -1.905  -0.235  0.00  0.00    -0.389 OA
ATOM     23  HO  UNL d   1      -4.806  -2.452  -0.863  1.00  0.00     0.210 HD
ENDBRANCH  10  22
TORSDOF 1
