REMARK  3 active torsions:
REMARK  status: ('A' for Active; 'I' for Inactive)
REMARK    1  A    between atoms: C_2  and  C_3 
REMARK    2  A    between atoms: C_2  and  O_8 
REMARK    3  A    between atoms: O_8  and  C_9 
ROOT
ATOM      1  C   UNL d   1       1.078  -2.368  -0.767  0.00  0.00     0.048 C 
ATOM      2  C   UNL d   1       0.963  -0.967  -1.344  0.00  0.00     0.191 C 
ENDROOT
BRANCH   2   3
ATOM      3  C   UNL d   1       1.857  -0.002  -0.628  0.00  0.00     0.102 A 
ATOM      4  N   UNL d   1       2.691   0.908  -1.315  0.00  0.00    -0.376 N 
ATOM      5  C   UNL d   1       3.367   1.693  -0.298  0.00  0.00     0.140 A 
ATOM      6  HN  UNL d   1       2.798   0.996  -2.325  1.00  0.00     0.160 HD
ATOM      7  C   UNL d   1       2.836   1.146   1.028  0.00  0.00     0.140 A 
ATOM      8  N   UNL d   1       1.898   0.100   0.655  0.00  0.00    -0.376 N 
ATOM      9  HN  UNL d   1       1.355  -0.466   1.308  1.00  0.00     0.160 HD
ENDBRANCH   2   3
BRANCH   2  10
ATOM     10  O   UNL d   1      -0.395  -0.515  -1.414  0.00  0.00    -0.335 OA
BRANCH  10  11
ATOM     11  C   UNL d   1      -1.181  -0.225  -0.290  0.00  0.00     0.113 A 
ATOM     12  C   UNL d   1      -1.952  -1.230   0.326  0.00  0.00     0.069 A 
ATOM     13  C   UNL d   1      -2.714  -0.932   1.459  0.00  0.00     0.027 A 
ATOM     14 CL   UNL d   1      -2.047  -2.853  -0.337  0.00  0.00    -0.081 Cl
ATOM     15  C   UNL d   1      -2.734   0.365   1.973  0.00  0.00     0.003 A 
ATOM     16  C   UNL d   1      -2.008   1.376   1.342  0.00  0.00     0.027 A 
ATOM     17  C   UNL d   1      -1.243   1.091   0.208  0.00  0.00     0.069 A 
ATOM     18 CL   UNL d   1      -0.416   2.412  -0.599  0.00  0.00    -0.081 Cl
ENDBRANCH  10  11
ENDBRANCH   2  10
TORSDOF 3
