REMARK  8 active torsions:
REMARK  status: ('A' for Active; 'I' for Inactive)
REMARK    1  A    between atoms: C_2  and  C_4 
REMARK    2  A    between atoms: C_4  and  C_5 
REMARK    3  A    between atoms: C_5  and  C_6 
REMARK    4  A    between atoms: C_6  and  C_7 
REMARK    5  A    between atoms: C_7  and  C_9 
REMARK    6  A    between atoms: C_18  and  C_19 
REMARK    7  A    between atoms: C_22  and  O_29 
REMARK    8  A    between atoms: C_24  and  O_27 
ROOT
ATOM      1  C   UNL d   1       2.891  -1.097  -0.276  0.00  0.00    -0.002 C 
ATOM      2  C   UNL d   1       2.670   0.020   0.766  0.00  0.00     0.006 C 
ATOM      3  C   UNL d   1       1.175   0.319   0.834  0.00  0.00     0.010 C 
ATOM      4  C   UNL d   1       0.545  -0.834   0.086  0.00  0.00     0.023 C 
ATOM      5  C   UNL d   1       1.539  -1.203  -1.002  0.00  0.00    -0.033 C 
ATOM      6  C   UNL d   1       1.165  -2.562  -1.623  0.00  0.00     0.010 C 
ATOM      7  C   UNL d   1      -0.348  -2.881  -1.582  0.00  0.00     0.005 C 
ATOM      8  C   UNL d   1      -1.258  -1.638  -1.555  0.00  0.00     0.034 C 
ATOM      9  C   UNL d   1      -0.843  -0.672  -0.471  0.00  0.00    -0.075 C 
ATOM     10  C   UNL d   1      -1.679   0.248   0.014  0.00  0.00     0.004 C 
ATOM     11  C   UNL d   1       1.550  -0.171  -2.133  0.00  0.00     0.016 C 
ENDROOT
BRANCH  10  12
ATOM     12  C   UNL d   1      -3.051   0.421  -0.483  0.00  0.00     0.008 C 
ATOM     13  C   UNL d   1      -3.896   1.342  -0.004  0.00  0.00    -0.048 C 
ATOM     14  C   UNL d   1      -5.256   1.494  -0.584  0.00  0.00    -0.033 C 
ATOM     15  C   UNL d   1      -3.442   2.308   1.061  0.00  0.00     0.071 C 
ATOM     16  C   UNL d   1      -6.325   2.227   0.176  0.00  0.00     0.153 C 
ATOM     17  C   UNL d   1      -5.603   0.874  -1.709  0.00  0.00     0.022 C 
ATOM     18  C   UNL d   1      -5.753   3.303   1.103  0.00  0.00     0.068 C 
ATOM     19  C   UNL d   1      -4.587   2.788   1.948  0.00  0.00     0.125 C 
BRANCH  16  20
ATOM     20  O   UNL d   1      -7.099   1.324   0.907  0.00  0.00    -0.391 OA
ATOM     21  HO  UNL d   1      -7.455   0.657   0.332  1.00  0.00     0.210 HD
ENDBRANCH  16  20
BRANCH  19  22
ATOM     22  O   UNL d   1      -5.003   1.766   2.804  0.00  0.00    -0.395 OA
ATOM     23  HO  UNL d   1      -5.716   2.065   3.357  1.00  0.00     0.210 HD
ENDBRANCH  19  22
ENDBRANCH  10  12
BRANCH   1  24
ATOM     24  C   UNL d   1       3.355  -2.400   0.416  0.00  0.00    -0.014 C 
ATOM     25  C   UNL d   1       3.800  -3.450  -0.593  0.00  0.00     0.010 C 
BRANCH  24  26
ATOM     26  C   UNL d   1       4.459  -2.185   1.464  0.00  0.00     0.005 C 
BRANCH  26  27
ATOM     27  C   UNL d   1       5.820  -1.823   0.865  0.00  0.00     0.001 C 
BRANCH  27  28
ATOM     28  C   UNL d   1       5.923  -0.339   0.539  0.00  0.00     0.004 C 
BRANCH  28  29
ATOM     29  C   UNL d   1       6.043   0.497   1.803  0.00  0.00    -0.023 C 
ATOM     30  C   UNL d   1       7.440   0.375   2.382  0.00  0.00     0.009 C 
ATOM     31  C   UNL d   1       5.769   1.949   1.470  0.00  0.00     0.009 C 
ENDBRANCH  28  29
ENDBRANCH  27  28
ENDBRANCH  26  27
ENDBRANCH  24  26
ENDBRANCH   1  24
TORSDOF 8
