REMARK  12 active torsions:
REMARK  status: ('A' for Active; 'I' for Inactive)
REMARK    1  A    between atoms: C_2  and  O_3 
REMARK    2  A    between atoms: C_2  and  O_7 
REMARK    3  A    between atoms: O_3  and  C_4 
REMARK    4  A    between atoms: O_7  and  C_8 
REMARK    5  A    between atoms: C_8  and  C_10 
REMARK    6  A    between atoms: C_11  and  C_33 
REMARK    7  A    between atoms: C_18  and  N_19 
REMARK       I    between atoms: N_19  and  C_21 
REMARK    8  A    between atoms: C_21  and  C_23 
REMARK    9  A    between atoms: C_23  and  C_28 
REMARK   10  A    between atoms: N_24  and  O_26 
REMARK   11  A    between atoms: C_33  and  O_34 
REMARK   12  A    between atoms: O_34  and  C_35 
ROOT
ATOM      1  C   UNL d   1      -2.517   1.099  -0.916  0.00  0.00     0.119 C 
ATOM      2  C   UNL d   1      -2.786   2.416  -0.866  0.00  0.00    -0.013 C 
ATOM      3  C   UNL d   1      -1.691   3.390  -1.208  0.00  0.00     0.115 C 
ATOM      4  S   UNL d   1      -0.152   3.128  -0.234  0.00  0.00    -0.136 SA
ATOM      5  C   UNL d   1       0.037   1.312  -0.469  0.00  0.00     0.187 A 
ATOM      6  N   UNL d   1      -1.149   0.741  -1.058  0.00  0.00    -0.294 N 
ATOM      7  C   UNL d   1      -0.319   0.288  -2.192  0.00  0.00     0.251 A 
ATOM      8  O   UNL d   1      -0.534  -0.356  -3.252  0.00  0.00    -0.271 OA
ATOM      9  C   UNL d   1       0.866   0.974  -1.589  0.00  0.00     0.211 A 
ENDROOT
BRANCH   9  10
ATOM     10  N   UNL d   1       1.852  -0.020  -1.193  0.00  0.00    -0.339 N 
ATOM     11  C   UNL d   1       3.084   0.328  -0.554  0.00  0.00     0.273 C 
ATOM     12  O   UNL d   1       3.357   1.541  -0.341  0.00  0.00    -0.266 OA
ATOM     13  HN  UNL d   1       1.658  -1.004  -1.378  1.00  0.00     0.163 HD
BRANCH  11  14
ATOM     14  C   UNL d   1       4.024  -0.739  -0.149  0.00  0.00     0.155 C 
ATOM     15  N   UNL d   1       3.679  -1.971  -0.388  0.00  0.00    -0.259 N 
ATOM     16  HN  UNL d   1       2.782  -2.141  -0.842  1.00  0.00     0.194 HD
BRANCH  15  17
ATOM     17  O   UNL d   1       4.457  -3.059  -0.064  0.00  0.00    -0.285 OA
ATOM     18  C   UNL d   1       4.004  -4.367  -0.358  0.00  0.00     0.237 C 
ENDBRANCH  15  17
BRANCH  14  19
ATOM     19  C   UNL d   1       5.314  -0.393   0.511  0.00  0.00     0.109 A 
ATOM     20  O   UNL d   1       5.696   0.836   0.761  0.00  0.00    -0.320 OA
ATOM     21  C   UNL d   1       6.869   0.819   1.345  0.00  0.00     0.142 A 
ATOM     22  C   UNL d   1       7.283  -0.492   1.487  0.00  0.00     0.027 A 
ATOM     23  C   UNL d   1       6.281  -1.278   0.949  0.00  0.00     0.041 A 
ENDBRANCH  14  19
ENDBRANCH  11  14
ENDBRANCH   9  10
BRANCH   1  24
ATOM     24  C   UNL d   1      -3.519   0.019  -0.784  0.00  0.00     0.313 C 
ATOM     25  O   UNL d   1      -4.754   0.272  -0.737  0.00  0.00    -0.258 OA
BRANCH  24  26
ATOM     26  O   UNL d   1      -3.073  -1.304  -0.735  0.00  0.00    -0.284 OA
BRANCH  26  27
ATOM     27  C   UNL d   1      -3.955  -2.410  -0.570  0.00  0.00     0.275 C 
ATOM     28  C   UNL d   1      -4.431  -2.506   0.872  0.00  0.00     0.071 C 
BRANCH  27  29
ATOM     29  O   UNL d   1      -3.311  -3.619  -0.969  0.00  0.00    -0.290 OA
BRANCH  29  30
ATOM     30  C   UNL d   1      -2.089  -4.059  -0.445  0.00  0.00     0.257 C 
ATOM     31  O   UNL d   1      -1.476  -3.389   0.429  0.00  0.00    -0.266 OA
ATOM     32  C   UNL d   1      -1.505  -5.335  -0.931  0.00  0.00     0.126 C 
ENDBRANCH  29  30
ENDBRANCH  27  29
ENDBRANCH  26  27
ENDBRANCH  24  26
ENDBRANCH   1  24
BRANCH   2  33
ATOM     33  C   UNL d   1      -4.138   2.971  -0.544  0.00  0.00     0.217 C 
BRANCH  33  34
ATOM     34  O   UNL d   1      -4.381   2.906   0.857  0.00  0.00    -0.302 OA
BRANCH  34  35
ATOM     35  C   UNL d   1      -3.828   3.817   1.759  0.00  0.00     0.372 C 
ATOM     36  O   UNL d   1      -3.121   4.779   1.356  0.00  0.00    -0.242 OA
ATOM     37  N   UNL d   1      -4.074   3.662   3.151  0.00  0.00    -0.032 NA
ENDBRANCH  34  35
ENDBRANCH  33  34
ENDBRANCH   2  33
TORSDOF 12
