REMARK  15 active torsions:
REMARK  status: ('A' for Active; 'I' for Inactive)
REMARK    1  A    between atoms: C_2  and  C_12 
REMARK    2  A    between atoms: C_8  and  O_9 
REMARK    3  A    between atoms: C_15  and  C_31 
REMARK    4  A    between atoms: C_21  and  N_22 
REMARK       I    between atoms: N_22  and  C_24 
REMARK    5  A    between atoms: C_31  and  O_32 
REMARK    6  A    between atoms: C_39  and  N_50 
REMARK    7  A    between atoms: C_44  and  C_47 
REMARK    8  A    between atoms: C_47  and  O_48 
REMARK       I    between atoms: N_50  and  C_52 
REMARK    9  A    between atoms: C_52  and  C_54 
REMARK   10  A    between atoms: C_54  and  C_55 
REMARK   11  A    between atoms: C_55  and  C_56 
REMARK   12  A    between atoms: C_55  and  N_63 
REMARK   13  A    between atoms: C_56  and  C_57 
REMARK   14  A    between atoms: C_57  and  C_58 
REMARK   15  A    between atoms: C_58  and  N_59 
ROOT
ATOM      1  C   UNK d   2      -2.231  -1.661  -0.090  0.00  0.00     0.199 C 
ATOM      2  N   UNK d   2       0.649   4.312  -0.437  0.00  0.00    -0.344 N 
ATOM      3  HN  UNK d   2       1.593   4.510  -0.104  1.00  0.00     0.163 HD
ATOM      4  C   UNK d   2      -0.478   4.582   0.446  0.00  0.00     0.200 C 
ATOM      5  C   UNK d   2      -1.103   3.302   0.905  0.00  0.00     0.247 C 
ATOM      6  O   UNK d   2      -0.372   2.333   1.253  0.00  0.00    -0.271 OA
ATOM      7  N   UNK d   2      -2.527   3.197   0.987  0.00  0.00    -0.320 N 
ATOM      8  HN  UNK d   2      -3.072   4.055   1.065  1.00  0.00     0.169 HD
ATOM      9  C   UNK d   2      -3.224   1.946   0.965  0.00  0.00     0.118 C 
ATOM     10  C   UNK d   2      -4.376   1.857   1.631  0.00  0.00     0.127 C 
ATOM     11  C   UNK d   2      -2.705   0.828   0.151  0.00  0.00     0.270 C 
ATOM     12  O   UNK d   2      -2.194   1.066  -0.977  0.00  0.00    -0.266 OA
ATOM     13  N   UNK d   2      -2.738  -0.510   0.656  0.00  0.00    -0.340 N 
ATOM     14  HN  UNK d   2      -3.134  -0.669   1.582  1.00  0.00     0.163 HD
ATOM     15  C   UNK d   1      -0.725  -1.678  -0.148  0.00  0.00     0.242 C 
ATOM     16  O   UNK d   1      -0.133  -2.699  -0.594  0.00  0.00    -0.271 OA
ATOM     17  N   UNK d   1       0.032  -0.526   0.237  0.00  0.00    -0.357 N 
ATOM     18  HN  UNK d   1      -0.471   0.278   0.612  1.00  0.00     0.162 HD
ATOM     19  C   UNK d   1       1.481  -0.438   0.122  0.00  0.00     0.157 C 
ATOM     20  C   UNK d   1       1.919  -0.467  -1.340  0.00  0.00     0.194 C 
ATOM     21  C   UNK d   1       1.451   0.754  -2.063  0.00  0.00     0.242 C 
ATOM     22  O   UNK d   1       0.435   0.678  -2.804  0.00  0.00    -0.271 OA
ATOM     23  N   UNK d   1       2.131   2.002  -1.897  0.00  0.00    -0.344 N 
ATOM     24  HN  UNK d   1       2.979   2.028  -1.331  1.00  0.00     0.163 HD
ATOM     25  C   UNK d   1       1.656   3.238  -2.508  0.00  0.00     0.200 C 
ATOM     26  C   UNK d   1       0.481   3.779  -1.755  0.00  0.00     0.243 C 
ATOM     27  O   UNK d   1      -0.663   3.722  -2.278  0.00  0.00    -0.271 OA
ENDROOT
BRANCH  20  28
ATOM     28  N   UNK d   1       3.371  -0.576  -1.427  0.00  0.00    -0.346 N 
ATOM     29  C   UNK d   0       4.080  -1.757  -1.046  0.00  0.00     0.220 C 
ATOM     30  O   UNK d   0       3.455  -2.769  -0.627  0.00  0.00    -0.274 OA
ATOM     31  HN  UNK d   1       3.902   0.223  -1.773  1.00  0.00     0.163 HD
BRANCH  29  32
ATOM     32  C   UNK d   0       5.573  -1.762  -1.097  0.00  0.00     0.135 C 
BRANCH  32  33
ATOM     33  C   UNK d   0       6.105  -2.968  -1.866  0.00  0.00     0.192 C 
BRANCH  33  34
ATOM     34  C   UNK d   0       7.522  -2.736  -2.387  0.00  0.00     0.034 C 
BRANCH  34  35
ATOM     35  C   UNK d   0       8.550  -2.550  -1.270  0.00  0.00     0.029 C 
BRANCH  35  36
ATOM     36  C   UNK d   0       8.679  -1.084  -0.889  0.00  0.00     0.229 C 
BRANCH  36  37
ATOM     37  N   UNK d   0       9.358  -0.353  -1.944  0.00  0.00    -0.079 N 
ATOM     38  HN3 UNK d   0      10.260  -0.768  -2.176  1.00  0.00     0.274 HD
ATOM     39  HN2 UNK d   0       8.901  -0.474  -2.848  1.00  0.00     0.274 HD
ATOM     40  HN1 UNK d   0       9.444   0.631  -1.688  1.00  0.00     0.274 HD
ENDBRANCH  36  37
ENDBRANCH  35  36
ENDBRANCH  34  35
ENDBRANCH  33  34
BRANCH  33  41
ATOM     41  N   UNK d   0       6.059  -4.160  -1.033  0.00  0.00    -0.075 N 
ATOM     42  HN3 UNK d   0       6.550  -4.025  -0.150  1.00  0.00     0.274 HD
ATOM     43  HN2 UNK d   0       5.124  -4.328  -0.662  1.00  0.00     0.274 HD
ATOM     44  HN1 UNK d   0       6.415  -4.966  -1.547  1.00  0.00     0.274 HD
ENDBRANCH  33  41
ENDBRANCH  32  33
ENDBRANCH  29  32
ENDBRANCH  20  28
BRANCH  25  45
ATOM     45  C   UNK d   1       2.788   4.255  -2.622  0.00  0.00     0.199 C 
BRANCH  45  46
ATOM     46  O   UNK d   1       3.396   4.474  -1.386  0.00  0.00    -0.398 OA
ATOM     47  HO  UNK d   1       4.100   5.107  -1.457  1.00  0.00     0.209 HD
ENDBRANCH  45  46
ENDBRANCH  25  45
BRANCH   1  48
ATOM     48  C   UNK d   2      -2.776  -2.959   0.504  0.00  0.00     0.120 C 
ATOM     49  C   UNK d   2      -4.283  -3.072   0.288  0.00  0.00     0.081 C 
ATOM     50  C   UNK d   2      -4.770  -4.350   0.965  0.00  0.00     0.222 C 
ATOM     51  N   UNK d   2      -4.378  -4.384   2.377  0.00  0.00    -0.338 N 
ATOM     52  C   UNK d   2      -3.282  -3.837   2.811  0.00  0.00     0.186 C 
ATOM     53  HN  UNK d   2      -4.990  -4.855   3.044  1.00  0.00     0.164 HD
ATOM     54  N   UNK d   2      -2.461  -3.062   1.929  0.00  0.00    -0.357 N 
ATOM     55  N   UNK d   2      -2.949  -3.925   4.190  0.00  0.00    -0.064 NA
ATOM     56  HN  UNK d   2      -1.645  -2.575   2.300  1.00  0.00     0.162 HD
BRANCH  50  57
ATOM     57  O   UNK d   2      -6.157  -4.444   0.860  0.00  0.00    -0.377 OA
ATOM     58  HO  UNK d   2      -6.461  -5.240   1.281  1.00  0.00     0.212 HD
ENDBRANCH  50  57
ENDBRANCH   1  48
BRANCH   4  59
ATOM     59  C   UNK d   2      -0.037   5.439   1.629  0.00  0.00     0.199 C 
BRANCH  59  60
ATOM     60  O   UNK d   2       0.971   4.806   2.360  0.00  0.00    -0.398 OA
ATOM     61  HO  UNK d   2       1.245   5.339   3.097  1.00  0.00     0.209 HD
ENDBRANCH  59  60
ENDBRANCH   4  59
BRANCH  10  62
ATOM     62  N   UNK d   2      -5.181   0.676   1.605  0.00  0.00    -0.319 N 
ATOM     63  C   UNK d   2      -6.408   0.573   2.328  0.00  0.00     0.332 C 
ATOM     64  O   UNK d   2      -6.808   1.522   3.056  0.00  0.00    -0.251 OA
ATOM     65  N   UNK d   2      -7.184  -0.614   2.229  0.00  0.00    -0.040 NA
ATOM     66  HN  UNK d   2      -4.867  -0.120   1.051  1.00  0.00     0.169 HD
ENDBRANCH  10  62
TORSDOF 15
