REMARK  Name = fda_7934
REMARK  9 active torsions:
REMARK  status: ('A' for Active; 'I' for Inactive)
REMARK    1  A    between atoms: C_2  and  O_4
REMARK    2  A    between atoms: C_2  and  C_12
REMARK    3  A    between atoms: O_4  and  C_5
REMARK    4  A    between atoms: C_12  and  O_14
REMARK    5  A    between atoms: O_14  and  C_15
REMARK    6  A    between atoms: C_15  and  C_16
REMARK    7  A    between atoms: C_16  and  O_17
REMARK    8  A    between atoms: O_17  and  C_18
REMARK    9  A    between atoms: C_18  and  C_20
REMARK                            x       y       z     vdW  Elec       q    Type
REMARK                         _______ _______ _______ _____ _____    ______ ____
ROOT
ATOM      1  C   UNL A   1       1.386  -1.381  -0.473  0.00  0.00    +0.354 C 
ATOM      2  O   UNL A   1       1.233  -0.568  -1.428  0.00  0.00    -0.246 OA
ENDROOT
BRANCH   1   4
ATOM      3  C   UNL A   1       2.292  -3.524  -1.232  0.00  0.00    +0.055 C 
ATOM      4  C   UNL A   1       2.600  -2.270  -0.439  0.00  0.00    +0.221 C 
ATOM      5  C   UNL A   1       2.932  -2.692   0.987  0.00  0.00    +0.055 C 
BRANCH   4   6
ATOM      6  O   UNL A   1       3.732  -1.626  -1.038  0.00  0.00    -0.472 OA
BRANCH   6   7
ATOM      7  C   UNL A   1       4.337  -0.443  -0.584  0.00  0.00    +0.139 A 
ATOM      8  C   UNL A   1       3.868   0.251   0.544  0.00  0.00    +0.038 A 
ATOM      9  C   UNL A   1       4.497   1.427   0.962  0.00  0.00    +0.015 A 
ATOM     10  C   UNL A   1       5.598   1.918   0.256  0.00  0.00    +0.058 A 
ATOM     11 CL   UNL A   1       6.386   3.391   0.779  0.00  0.00    -0.082 Cl
ATOM     12  C   UNL A   1       6.070   1.234  -0.867  0.00  0.00    +0.015 A 
ATOM     13  C   UNL A   1       5.440   0.057  -1.284  0.00  0.00    +0.038 A 
ENDBRANCH   6   7
ENDBRANCH   4   6
ENDBRANCH   1   4
BRANCH   1  14
ATOM     14  O   UNL A   1       0.403  -1.499   0.516  0.00  0.00    -0.442 OA
BRANCH  14  15
ATOM     15  C   UNL A   1      -0.788  -0.722   0.505  0.00  0.00    +0.256 C 
BRANCH  15  16
ATOM     16  C   UNL A   1      -1.762  -1.272  -0.525  0.00  0.00    +0.256 C 
BRANCH  16  17
ATOM     17  O   UNL A   1      -2.952  -0.493  -0.537  0.00  0.00    -0.441 OA
BRANCH  17  18
ATOM     18  C   UNL A   1      -3.934  -0.606   0.453  0.00  0.00    +0.343 C 
ATOM     19  O   UNL A   1      -3.800  -1.442   1.389  0.00  0.00    -0.245 OA
BRANCH  18  20
ATOM     20  C   UNL A   1      -5.127   0.254   0.398  0.00  0.00    +0.095 A 
ATOM     21  C   UNL A   1      -6.125   0.161   1.375  0.00  0.00    +0.010 A 
ATOM     22  C   UNL A   1      -7.250   0.984   1.308  0.00  0.00    +0.021 A 
ATOM     23  C   UNL A   1      -7.364   1.897   0.258  0.00  0.00    +0.099 A 
ATOM     24  N   UNL A   1      -6.387   1.977  -0.685  0.00  0.00    -0.242 NA
ATOM     25  C   UNL A   1      -5.283   1.184  -0.637  0.00  0.00    +0.105 A 
ENDBRANCH  18  20
ENDBRANCH  17  18
ENDBRANCH  16  17
ENDBRANCH  15  16
ENDBRANCH  14  15
ENDBRANCH   1  14
TORSDOF 9
