REMARK  8 active torsions:
REMARK  status: ('A' for Active; 'I' for Inactive)
REMARK    1  A    between atoms: O_1  and  C_2 
REMARK    2  A    between atoms: O_1  and  C_11 
REMARK    3  A    between atoms: C_2  and  C_3 
REMARK    4  A    between atoms: C_3  and  C_4 
REMARK    5  A    between atoms: C_3  and  O_9 
REMARK    6  A    between atoms: C_4  and  O_5 
REMARK    7  A    between atoms: O_5  and  C_6 
REMARK    8  A    between atoms: C_12  and  O_13 
ROOT
ATOM      1  O   UNL d   1      -0.573  -1.050  -1.387  0.00  0.00    -0.346 OA
ENDROOT
BRANCH   1   2
ATOM      2  C   UNL d   1       0.805  -0.847  -1.688  0.00  0.00     0.209 C 
BRANCH   2   3
ATOM      3  C   UNL d   1       1.631  -0.854  -0.414  0.00  0.00     0.166 C 
BRANCH   3   4
ATOM      4  C   UNL d   1       3.055  -0.431  -0.734  0.00  0.00     0.213 C 
BRANCH   4   5
ATOM      5  O   UNL d   1       3.799  -0.241   0.464  0.00  0.00    -0.304 OA
BRANCH   5   6
ATOM      6  C   UNL d   1       3.624   0.877   1.284  0.00  0.00     0.372 C 
ATOM      7  N   UNL d   1       4.385   0.995   2.479  0.00  0.00    -0.032 NA
ATOM      8  O   UNL d   1       2.803   1.782   0.976  0.00  0.00    -0.242 OA
ENDBRANCH   5   6
ENDBRANCH   4   5
ENDBRANCH   3   4
BRANCH   3   9
ATOM      9  O   UNL d   1       1.634  -2.135   0.139  0.00  0.00    -0.391 OA
ATOM     10  HO  UNL d   1       2.151  -2.139   0.936  1.00  0.00     0.210 HD
ENDBRANCH   3   9
ENDBRANCH   2   3
ENDBRANCH   1   2
BRANCH   1  11
ATOM     11  C   UNL d   1      -1.396  -0.053  -0.847  0.00  0.00     0.102 A 
ATOM     12  C   UNL d   1      -2.729  -0.362  -0.533  0.00  0.00     0.101 A 
ATOM     13  C   UNL d   1      -3.562   0.632   0.008  0.00  0.00     0.039 A 
ATOM     14  C   UNL d   1      -3.072   1.921   0.234  0.00  0.00     0.003 A 
ATOM     15  C   UNL d   1      -1.747   2.228  -0.079  0.00  0.00     0.003 A 
ATOM     16  C   UNL d   1      -0.913   1.246  -0.618  0.00  0.00     0.039 A 
BRANCH  12  17
ATOM     17  O   UNL d   1      -3.204  -1.657  -0.766  0.00  0.00    -0.353 OA
ATOM     18  C   UNL d   1      -4.538  -2.052  -0.476  0.00  0.00     0.210 C 
ENDBRANCH  12  17
ENDBRANCH   1  11
TORSDOF 8
