REMARK  1 active torsions:
REMARK  status: ('A' for Active; 'I' for Inactive)
REMARK    1  A    between atoms: C_10  and  O_11 
ROOT
ATOM      1  C   UNL d   1       2.828   1.234   2.298  0.00  0.00     0.018 C 
ATOM      2  C   UNL d   1       3.041   0.478   0.988  0.00  0.00    -0.014 C 
ATOM      3  C   UNL d   1       2.621   1.367  -0.186  0.00  0.00     0.012 C 
ATOM      4  C   UNL d   1       1.104   1.448  -0.280  0.00  0.00     0.007 C 
ATOM      5  C   UNL d   1       0.482   0.071  -0.570  0.00  0.00     0.001 C 
ATOM      6  C   UNL d   1       1.381  -1.135  -0.162  0.00  0.00    -0.005 C 
ATOM      7  C   UNL d   1       2.258  -0.848   1.070  0.00  0.00     0.001 C 
ATOM      8  C   UNL d   1       3.293  -1.955   1.258  0.00  0.00     0.008 C 
ATOM      9  C   UNL d   1       4.632  -1.281   1.472  0.00  0.00     0.033 C 
ATOM     10  C   UNL d   1       4.499   0.066   0.806  0.00  0.00     0.126 C 
ATOM     11  C   UNL d   1       0.619  -2.458   0.000  0.00  0.00     0.008 C 
ATOM     12  C   UNL d   1      -0.586  -2.530  -0.922  0.00  0.00     0.042 C 
ATOM     13  C   UNL d   1      -1.559  -1.432  -0.523  0.00  0.00     0.102 A 
ATOM     14  C   UNL d   1      -1.008  -0.026  -0.153  0.00  0.00    -0.004 C 
ATOM     15  C   UNL d   1      -1.781   1.036  -0.938  0.00  0.00     0.039 C 
ATOM     16  C   UNL d   1      -3.284   0.994  -0.690  0.00  0.00     0.166 C 
ATOM     17  C   UNL d   1      -3.852  -0.397  -0.840  0.00  0.00     0.176 C 
ATOM     18  C   UNL d   1      -2.984  -1.624  -0.920  0.00  0.00     0.228 A 
ATOM     19  O   UNL d   1      -2.522  -1.926   0.378  0.00  0.00    -0.360 OA
ATOM     20  O   UNL d   1      -5.064  -0.550  -0.829  0.00  0.00    -0.294 OA
ATOM     21  C   UNL d   1      -3.936   1.925  -1.618  0.00  0.00     0.071 C 
ATOM     22  N   UNL d   1      -4.449   2.661  -2.350  0.00  0.00    -0.196 NA
ATOM     23  C   UNL d   1      -1.130   0.241   1.350  0.00  0.00     0.019 C 
ENDROOT
BRANCH  10  24
ATOM     24  O   UNL d   1       5.396   0.984   1.360  0.00  0.00    -0.395 OA
ATOM     25  HO  UNL d   1       6.303   0.727   1.246  1.00  0.00     0.210 HD
ENDBRANCH  10  24
TORSDOF 1
