REMARK  15 active torsions:
REMARK  status: ('A' for Active; 'I' for Inactive)
REMARK    1  A    between atoms: C_2  and  C_3 
REMARK    2  A    between atoms: C_3  and  C_4 
REMARK    3  A    between atoms: C_4  and  C_5 
REMARK    4  A    between atoms: C_5  and  C_6 
REMARK    5  A    between atoms: C_6  and  C_8 
REMARK    6  A    between atoms: C_6  and  O_27 
REMARK    7  A    between atoms: C_10  and  C_9 
REMARK    8  A    between atoms: C_11  and  O_25 
REMARK    9  A    between atoms: C_13  and  O_23 
REMARK   10  A    between atoms: C_14  and  C_15 
REMARK   11  A    between atoms: C_15  and  C_16 
REMARK   12  A    between atoms: C_17  and  C_18 
REMARK   13  A    between atoms: C_18  and  C_19 
REMARK   14  A    between atoms: C_19  and  C_20 
REMARK   15  A    between atoms: C_20  and  C_21 
ROOT
ATOM      1  C   UNL d   1      -0.626  -1.994  -1.528  0.00  0.00     0.043 C 
ATOM      2  C   UNL d   1      -1.537  -3.129  -1.977  0.00  0.00     0.128 C 
ATOM      3  C   UNL d   1      -1.280  -4.307  -1.048  0.00  0.00     0.064 C 
ATOM      4  C   UNL d   1      -0.352  -3.817   0.045  0.00  0.00     0.125 C 
ATOM      5  C   UNL d   1       0.364  -2.624  -0.543  0.00  0.00     0.028 C 
ENDROOT
BRANCH   1   6
ATOM      6  C   UNL d   1      -1.442  -0.857  -0.965  0.00  0.00    -0.020 C 
ATOM      7  C   UNL d   1      -2.277  -1.010   0.071  0.00  0.00     0.007 C 
BRANCH   7   8
ATOM      8  C   UNL d   1      -3.064   0.135   0.630  0.00  0.00     0.072 C 
ATOM      9  C   UNL d   1      -4.000  -0.409   1.693  0.00  0.00     0.050 C 
BRANCH   8  10
ATOM     10  C   UNL d   1      -2.104   1.156   1.251  0.00  0.00     0.041 C 
BRANCH  10  11
ATOM     11  C   UNL d   1      -2.805   2.403   1.786  0.00  0.00     0.003 C 
BRANCH  11  12
ATOM     12  C   UNL d   1      -3.037   3.424   0.684  0.00  0.00    -0.000 C 
BRANCH  12  13
ATOM     13  C   UNL d   1      -1.730   4.088   0.293  0.00  0.00    -0.005 C 
ATOM     14  C   UNL d   1      -1.983   5.084  -0.818  0.00  0.00     0.005 C 
ENDBRANCH  12  13
ENDBRANCH  11  12
ENDBRANCH  10  11
ENDBRANCH   8  10
BRANCH   8  15
ATOM     15  O   UNL d   1      -3.818   0.724  -0.388  0.00  0.00    -0.386 OA
ATOM     16  HO  UNL d   1      -4.413   0.091  -0.773  1.00  0.00     0.211 HD
ENDBRANCH   8  15
ENDBRANCH   7   8
ENDBRANCH   1   6
BRANCH   5  17
ATOM     17  C   UNL d   1       0.899  -1.693   0.546  0.00  0.00     0.034 C 
BRANCH  17  18
ATOM     18  C   UNL d   1       1.806  -0.653  -0.028  0.00  0.00    -0.030 C 
ATOM     19  C   UNL d   1       3.026  -0.973  -0.459  0.00  0.00    -0.031 C 
BRANCH  19  20
ATOM     20  C   UNL d   1       3.937   0.063  -1.038  0.00  0.00     0.027 C 
BRANCH  20  21
ATOM     21  C   UNL d   1       4.494   0.980   0.041  0.00  0.00     0.014 C 
BRANCH  21  22
ATOM     22  C   UNL d   1       3.499   2.079   0.370  0.00  0.00     0.113 C 
BRANCH  22  23
ATOM     23  C   UNL d   1       4.040   2.942   1.454  0.00  0.00     0.172 C 
ATOM     24  O   UNL d   1       3.756   2.696   2.655  0.00  0.00    -0.648 OA
ATOM     25  O   UNL d   1       4.886   3.998   1.144  0.00  0.00    -0.648 OA
ENDBRANCH  22  23
ENDBRANCH  21  22
ENDBRANCH  20  21
ENDBRANCH  19  20
ENDBRANCH  17  18
ENDBRANCH   5  17
BRANCH   2  26
ATOM     26  O   UNL d   1      -1.220  -3.493  -3.285  0.00  0.00    -0.395 OA
ATOM     27  HO  UNL d   1      -1.788  -4.201  -3.566  1.00  0.00     0.210 HD
ENDBRANCH   2  26
BRANCH   4  28
ATOM     28  O   UNL d   1       0.567  -4.815   0.369  0.00  0.00    -0.395 OA
ATOM     29  HO  UNL d   1       1.148  -4.507   1.055  1.00  0.00     0.210 HD
ENDBRANCH   4  28
TORSDOF 15
