REMARK  11 active torsions:
REMARK  status: ('A' for Active; 'I' for Inactive)
REMARK    1  A    between atoms: C_2  and  C_1 
REMARK    2  A    between atoms: C_1  and  C_21 
REMARK    3  A    between atoms: C_2  and  O_3 
REMARK    4  A    between atoms: C_2  and  C_18 
REMARK    5  A    between atoms: O_3  and  C_4 
REMARK    6  A    between atoms: C_4  and  C_5 
REMARK    7  A    between atoms: C_6  and  C_7 
REMARK    8  A    between atoms: C_9  and  O_10 
REMARK    9  A    between atoms: C_12  and  O_13 
REMARK   10  A    between atoms: C_23  and  O_24 
REMARK   11  A    between atoms: C_26  and  O_27 
ROOT
ATOM      1  C   UNL d   1      -2.497  -2.070   0.539  0.00  0.00     0.237 C 
ENDROOT
BRANCH   1   2
ATOM      2  C   UNL d   1      -3.394  -1.303  -0.445  0.00  0.00     0.082 C 
BRANCH   2   3
ATOM      3  C   UNL d   1      -3.313   0.182  -0.312  0.00  0.00    -0.052 A 
ATOM      4  C   UNL d   1      -2.472   0.911  -1.161  0.00  0.00     0.046 A 
ATOM      5  C   UNL d   1      -2.383   2.301  -1.039  0.00  0.00     0.099 A 
ATOM      6  C   UNL d   1      -3.141   2.967  -0.067  0.00  0.00     0.098 A 
ATOM      7  C   UNL d   1      -3.987   2.240   0.777  0.00  0.00     0.040 A 
ATOM      8  C   UNL d   1      -4.074   0.850   0.654  0.00  0.00     0.010 A 
BRANCH   5   9
ATOM      9  O   UNL d   1      -1.541   3.013  -1.883  0.00  0.00    -0.358 OA
ATOM     10  HO  UNL d   1      -1.480   3.957  -1.800  1.00  0.00     0.217 HD
ENDBRANCH   5   9
BRANCH   6  11
ATOM     11  O   UNL d   1      -3.060   4.347   0.064  0.00  0.00    -0.358 OA
ATOM     12  HO  UNL d   1      -3.574   4.799   0.723  1.00  0.00     0.217 HD
ENDBRANCH   6  11
ENDBRANCH   2   3
ENDBRANCH   1   2
BRANCH   1  13
ATOM     13  O   UNL d   1      -1.105  -1.764   0.397  0.00  0.00    -0.301 OA
BRANCH  13  14
ATOM     14  C   UNL d   1      -0.462  -0.645   0.949  0.00  0.00     0.283 C 
ATOM     15  O   UNL d   1      -1.072   0.140   1.723  0.00  0.00    -0.260 OA
BRANCH  14  16
ATOM     16  C   UNL d   1       0.942  -0.378   0.636  0.00  0.00     0.083 C 
ATOM     17  C   UNL d   1       1.633  -1.168  -0.181  0.00  0.00     0.017 C 
BRANCH  17  18
ATOM     18  C   UNL d   1       3.043  -0.926  -0.516  0.00  0.00    -0.033 A 
ATOM     19  C   UNL d   1       3.750   0.168   0.010  0.00  0.00     0.050 A 
ATOM     20  C   UNL d   1       5.091   0.370  -0.330  0.00  0.00     0.099 A 
ATOM     21  C   UNL d   1       5.733  -0.520  -1.199  0.00  0.00     0.098 A 
ATOM     22  C   UNL d   1       5.032  -1.609  -1.725  0.00  0.00     0.040 A 
ATOM     23  C   UNL d   1       3.691  -1.811  -1.384  0.00  0.00     0.014 A 
BRANCH  20  24
ATOM     24  O   UNL d   1       5.778   1.456   0.198  0.00  0.00    -0.358 OA
ATOM     25  HO  UNL d   1       6.689   1.594  -0.033  1.00  0.00     0.217 HD
ENDBRANCH  20  24
BRANCH  21  26
ATOM     26  O   UNL d   1       7.065  -0.329  -1.544  0.00  0.00    -0.358 OA
ATOM     27  HO  UNL d   1       7.501  -0.933  -2.134  1.00  0.00     0.217 HD
ENDBRANCH  21  26
ENDBRANCH  17  18
ENDBRANCH  14  16
ENDBRANCH  13  14
ENDBRANCH   1  13
BRANCH   1  28
ATOM     28  C   UNL d   1      -2.975  -2.095   1.966  0.00  0.00     0.204 C 
ATOM     29  O   UNL d   1      -2.094  -2.428   2.987  0.00  0.00    -0.646 OA
ATOM     30  O   UNL d   1      -4.189  -1.900   2.238  0.00  0.00    -0.646 OA
ENDBRANCH   1  28
TORSDOF 11
