REMARK  13 active torsions:
REMARK  status: ('A' for Active; 'I' for Inactive)
REMARK    1  A    between atoms: C_2  and  O_4 
REMARK    2  A    between atoms: O_4  and  C_5 
REMARK    3  A    between atoms: C_5  and  O_7 
REMARK    4  A    between atoms: O_7  and  C_8 
REMARK    5  A    between atoms: C_8  and  O_10 
REMARK    6  A    between atoms: O_10  and  C_11 
REMARK    7  A    between atoms: C_11  and  C_13 
REMARK    8  A    between atoms: C_14  and  C_38 
REMARK    9  A    between atoms: C_21  and  N_22 
REMARK       I    between atoms: N_22  and  C_24 
REMARK   10  A    between atoms: C_24  and  C_26 
REMARK   11  A    between atoms: C_26  and  C_31 
REMARK   12  A    between atoms: N_27  and  O_29 
REMARK   13  A    between atoms: C_38  and  O_39 
ROOT
ATOM      1  C   UNL d   1       1.429   1.418  -1.144  0.00  0.00     0.119 C 
ATOM      2  C   UNL d   1       1.341   2.585  -1.831  0.00  0.00    -0.014 C 
ATOM      3  C   UNL d   1      -0.002   3.229  -2.090  0.00  0.00     0.115 C 
ATOM      4  S   UNL d   1      -1.118   3.190  -0.634  0.00  0.00    -0.136 SA
ATOM      5  C   UNL d   1      -1.135   1.374  -0.651  0.00  0.00     0.187 A 
ATOM      6  N   UNL d   1       0.232   0.934  -0.529  0.00  0.00    -0.294 N 
ATOM      7  C   UNL d   1      -0.136   0.267   0.737  0.00  0.00     0.251 A 
ATOM      8  O   UNL d   1       0.472  -0.425   1.596  0.00  0.00    -0.271 OA
ATOM      9  C   UNL d   1      -1.522   0.816   0.612  0.00  0.00     0.211 A 
ENDROOT
BRANCH   9  10
ATOM     10  N   UNL d   1      -2.461  -0.276   0.405  0.00  0.00    -0.340 N 
ATOM     11  C   UNL d   1      -3.864  -0.059   0.221  0.00  0.00     0.273 C 
ATOM     12  O   UNL d   1      -4.327   1.113   0.265  0.00  0.00    -0.266 OA
ATOM     13  HN  UNL d   1      -2.106  -1.233   0.390  1.00  0.00     0.163 HD
BRANCH  11  14
ATOM     14  C   UNL d   1      -4.759  -1.214  -0.001  0.00  0.00     0.149 C 
ATOM     15  N   UNL d   1      -4.243  -2.407   0.079  0.00  0.00    -0.260 N 
ATOM     16  HN  UNL d   1      -3.255  -2.491   0.320  1.00  0.00     0.194 HD
BRANCH  15  17
ATOM     17  O   UNL d   1      -4.960  -3.561  -0.145  0.00  0.00    -0.285 OA
ATOM     18  C   UNL d   1      -4.323  -4.820  -0.040  0.00  0.00     0.237 C 
ENDBRANCH  15  17
BRANCH  14  19
ATOM     19  C   UNL d   1      -6.198  -1.002  -0.320  0.00  0.00     0.075 A 
ATOM     20  N   UNL d   1      -6.638   0.156  -0.890  0.00  0.00    -0.337 N 
ATOM     21  C   UNL d   1      -7.970   0.142  -1.079  0.00  0.00     0.159 A 
ATOM     22  HN  UNL d   1      -6.032   0.937  -1.141  1.00  0.00     0.168 HD
ATOM     23  S   UNL d   1      -8.662  -1.286  -0.553  0.00  0.00    -0.067 SA
ATOM     24  N   UNL d   1      -8.689   1.225  -1.655  0.00  0.00    -0.074 NA
ATOM     25  C   UNL d   1      -7.196  -1.946  -0.048  0.00  0.00     0.085 A 
ENDBRANCH  14  19
ENDBRANCH  11  14
ENDBRANCH   9  10
BRANCH   1  26
ATOM     26  C   UNL d   1       2.692   0.663  -0.935  0.00  0.00     0.313 C 
ATOM     27  O   UNL d   1       3.791   1.086  -1.389  0.00  0.00    -0.258 OA
BRANCH  26  28
ATOM     28  O   UNL d   1       2.648  -0.554  -0.243  0.00  0.00    -0.284 OA
BRANCH  28  29
ATOM     29  C   UNL d   1       3.793  -1.365   0.018  0.00  0.00     0.277 C 
ATOM     30  C   UNL d   1       4.359  -1.930  -1.276  0.00  0.00     0.072 C 
BRANCH  29  31
ATOM     31  O   UNL d   1       4.781  -0.617   0.719  0.00  0.00    -0.266 OA
BRANCH  31  32
ATOM     32  C   UNL d   1       5.820  -1.224   1.427  0.00  0.00     0.409 C 
ATOM     33  O   UNL d   1       5.901  -2.482   1.489  0.00  0.00    -0.229 OA
BRANCH  32  34
ATOM     34  O   UNL d   1       6.766  -0.414   2.068  0.00  0.00    -0.293 OA
BRANCH  34  35
ATOM     35  C   UNL d   1       7.874  -0.911   2.822  0.00  0.00     0.126 C 
ATOM     36  C   UNL d   1       8.815  -1.725   1.952  0.00  0.00     0.040 C 
ATOM     37  C   UNL d   1       7.411  -1.721   4.020  0.00  0.00     0.040 C 
ENDBRANCH  34  35
ENDBRANCH  32  34
ENDBRANCH  31  32
ENDBRANCH  29  31
ENDBRANCH  28  29
ENDBRANCH  26  28
ENDBRANCH   1  26
BRANCH   2  38
ATOM     38  C   UNL d   1       2.523   3.286  -2.419  0.00  0.00     0.204 C 
BRANCH  38  39
ATOM     39  O   UNL d   1       3.237   3.937  -1.412  0.00  0.00    -0.392 OA
ATOM     40  C   UNL d   1       4.318   4.520  -2.071  0.00  0.00     0.201 C 
ENDBRANCH  38  39
ENDBRANCH   2  38
TORSDOF 13
