REMARK  Name = fda_5038
REMARK  1 active torsions:
REMARK  status: ('A' for Active; 'I' for Inactive)
REMARK    1  A    between atoms: C_9  and  O_20
REMARK                            x       y       z     vdW  Elec       q    Type
REMARK                         _______ _______ _______ _____ _____    ______ ____
ROOT
ATOM      1  C   UNL A   1      -3.147   2.525  -0.502  0.00  0.00    +0.090 C 
ATOM      2  C   UNL A   1      -2.739   0.737  -2.028  0.00  0.00    +0.073 C 
ATOM      3  C   UNL A   1      -1.223   0.499  -2.180  0.00  0.00    +0.025 C 
ATOM      4  C   UNL A   1      -0.621  -0.356  -1.056  0.00  0.00    +0.068 C 
ATOM      5  C   UNL A   1       0.278   0.503  -0.248  0.00  0.00    +0.014 A 
ATOM      6  C   UNL A   1      -0.113   1.300   0.823  0.00  0.00    -0.022 A 
ATOM      7  C   UNL A   1       0.890   1.953   1.558  0.00  0.00    -0.001 A 
ATOM      8  C   UNL A   1       2.249   1.744   1.237  0.00  0.00    +0.040 A 
ATOM      9  C   UNL A   1       2.611   0.823   0.227  0.00  0.00    +0.172 A 
ATOM     10  C   UNL A   1       1.582   0.181  -0.462  0.00  0.00    +0.168 A 
ATOM     11  O   UNL A   1       1.684  -0.900  -1.316  0.00  0.00    -0.473 OA
ATOM     12  C   UNL A   1       0.380  -1.417  -1.616  0.00  0.00    +0.204 C 
ATOM     13  C   UNL A   1       0.205  -2.812  -0.973  0.00  0.00    +0.214 C 
ATOM     14  C   UNL A   1      -0.242  -2.748   0.473  0.00  0.00    +0.005 C 
ATOM     15  C   UNL A   1      -1.163  -1.859   0.874  0.00  0.00    -0.027 C 
ATOM     16  C   UNL A   1      -1.726  -0.905  -0.142  0.00  0.00    +0.044 C 
ATOM     17  C   UNL A   1      -2.464   0.327   0.437  0.00  0.00    +0.066 C 
ATOM     18  C   UNL A   1      -1.533   1.222   1.322  0.00  0.00    +0.042 C 
ATOM     19  O   UNL A   1      -0.720  -3.549  -1.713  0.00  0.00    -0.214 OA
ATOM     20  N   UNL A   1      -3.163   1.073  -0.653  0.00  0.00    -0.272 NA
ENDROOT
BRANCH   9  21
ATOM     21  O   UNL A   1       3.944   0.523  -0.067  0.00  0.00    -0.468 OA
ATOM     22  C   UNL A   1       5.032   1.135   0.611  0.00  0.00    +0.253 C 
ENDBRANCH   9  21
TORSDOF 1
