REMARK  8 active torsions:
REMARK  status: ('A' for Active; 'I' for Inactive)
REMARK    1  A    between atoms: C_2  and  O_4 
REMARK    2  A    between atoms: O_4  and  C_5 
REMARK    3  A    between atoms: C_6  and  C_5 
REMARK    4  A    between atoms: C_7  and  O_25 
REMARK    5  A    between atoms: C_8  and  O_21 
REMARK    6  A    between atoms: C_9  and  N_11 
REMARK    7  A    between atoms: O_21  and  C_22 
REMARK    8  A    between atoms: O_25  and  C_26 
ROOT
ATOM      1  C   UNL d   1      -1.367   0.608  -0.230  0.00  0.00     0.180 C 
ATOM      2  C   UNL d   1      -1.471  -0.793   0.357  0.00  0.00     0.197 C 
ATOM      3  C   UNL d   1      -0.165  -1.440  -0.016  0.00  0.00     0.214 C 
ATOM      4  C   UNL d   1       0.517  -0.404  -0.913  0.00  0.00     0.281 C 
ATOM      5  O   UNL d   1      -0.406   0.604  -1.255  0.00  0.00    -0.352 OA
ENDROOT
BRANCH   4   6
ATOM      6  N   UNL d   1       1.718   0.180  -0.307  0.00  0.00    -0.210 N 
ATOM      7  N   UNL d   1       1.592   1.083   0.671  0.00  0.00    -0.298 N 
ATOM      8  C   UNL d   1       2.676   1.636   1.271  0.00  0.00     0.182 A 
ATOM      9  HN  UNL d   1       0.659   1.363   0.973  1.00  0.00     0.186 HD
ATOM     10  C   UNL d   1       3.942   1.243   0.853  0.00  0.00     0.266 A 
ATOM     11  N   UNL d   1       4.063   0.324  -0.136  0.00  0.00    -0.273 N 
ATOM     12  O   UNL d   1       4.968   1.736   1.388  0.00  0.00    -0.267 OA
ATOM     13  C   UNL d   1       2.961  -0.213  -0.719  0.00  0.00     0.346 A 
ATOM     14  HN  UNL d   1       4.990   0.032  -0.444  1.00  0.00     0.173 HD
ATOM     15  O   UNL d   1       3.097  -1.069  -1.635  0.00  0.00    -0.245 OA
ENDBRANCH   4   6
BRANCH   3  16
ATOM     16  O   UNL d   1       0.601  -1.730   1.150  0.00  0.00    -0.309 OA
BRANCH  16  17
ATOM     17  C   UNL d   1       0.324  -2.824   1.973  0.00  0.00     0.255 C 
ATOM     18  O   UNL d   1      -0.612  -3.621   1.698  0.00  0.00    -0.266 OA
ATOM     19  C   UNL d   1       1.150  -3.052   3.187  0.00  0.00     0.126 C 
ENDBRANCH  16  17
ENDBRANCH   3  16
BRANCH   2  20
ATOM     20  O   UNL d   1      -2.591  -1.550  -0.123  0.00  0.00    -0.311 OA
BRANCH  20  21
ATOM     21  C   UNL d   1      -2.798  -1.944  -1.453  0.00  0.00     0.255 C 
ATOM     22  O   UNL d   1      -1.984  -1.636  -2.363  0.00  0.00    -0.266 OA
ATOM     23  C   UNL d   1      -4.006  -2.739  -1.794  0.00  0.00     0.126 C 
ENDBRANCH  20  21
ENDBRANCH   2  20
BRANCH   1  24
ATOM     24  C   UNL d   1      -2.694   1.181  -0.716  0.00  0.00     0.213 C 
BRANCH  24  25
ATOM     25  O   UNL d   1      -2.535   2.540  -1.107  0.00  0.00    -0.319 OA
BRANCH  25  26
ATOM     26  C   UNL d   1      -2.381   3.573  -0.179  0.00  0.00     0.254 C 
ATOM     27  C   UNL d   1      -2.191   4.966  -0.660  0.00  0.00     0.126 C 
ATOM     28  O   UNL d   1      -2.404   3.341   1.059  0.00  0.00    -0.266 OA
ENDBRANCH  25  26
ENDBRANCH  24  25
ENDBRANCH   1  24
TORSDOF 8
