REMARK  2 active torsions:
REMARK  status: ('A' for Active; 'I' for Inactive)
REMARK       I    between atoms: C_2  and  N_6 
REMARK    1  A    between atoms: N_6  and  C_8 
REMARK    2  A    between atoms: C_8  and  C_9 
ROOT
ATOM      1  C   UNL d   1      -1.253  -1.290  -0.584  0.00  0.00     0.160 C 
ENDROOT
BRANCH   1   2
ATOM      2  N   UNL d   1      -2.253  -0.231  -0.602  0.00  0.00    -0.361 N 
ATOM      3  C   UNL d   1      -2.594   0.549   0.547  0.00  0.00     0.182 C 
ATOM      4  N   UNL d   1      -3.557   1.588   0.430  0.00  0.00    -0.064 NA
ATOM      5  N   UNL d   1      -2.064   0.296   1.699  0.00  0.00    -0.374 N 
ATOM      6  HN2 UNL d   1      -2.307   0.852   2.519  1.00  0.00     0.158 HD
ATOM      7  HN1 UNL d   1      -1.373  -0.450   1.783  1.00  0.00     0.158 HD
ATOM      8  HN  UNL d   1      -2.736  -0.036  -1.479  1.00  0.00     0.162 HD
ENDBRANCH   1   2
BRANCH   1   9
ATOM      9  C   UNL d   1       0.121  -0.710  -0.612  0.00  0.00    -0.039 A 
ATOM     10  C   UNL d   1       0.649  -0.212  -1.808  0.00  0.00     0.009 A 
ATOM     11  C   UNL d   1       1.932   0.344  -1.830  0.00  0.00     0.002 A 
ATOM     12  C   UNL d   1       2.688   0.404  -0.655  0.00  0.00     0.018 A 
ATOM     13  C   UNL d   1       2.160  -0.091   0.541  0.00  0.00     0.007 A 
ATOM     14  I   UNL d   1       3.294   0.002   2.310  0.00  0.00    -0.045 I 
ATOM     15  C   UNL d   1       0.877  -0.647   0.563  0.00  0.00     0.027 A 
ENDBRANCH   1   9
TORSDOF 2
