REMARK  2 active torsions:
REMARK  status: ('A' for Active; 'I' for Inactive)
REMARK    1  A    between atoms: C_2  and  N_3 
REMARK    2  A    between atoms: C_5  and  C_6 
ROOT
ATOM      1  N   UNL d   1       0.150   1.283  -0.594  0.00  0.00    -0.342 N 
ATOM      2  C   UNL d   1       1.450   0.889  -0.506  0.00  0.00     0.115 A 
ATOM      3  C   UNL d   1       1.798  -0.382  -0.035  0.00  0.00     0.107 A 
ATOM      4  C   UNL d   1       0.768  -1.263   0.355  0.00  0.00     0.204 A 
ATOM      5  O   UNL d   1       1.038  -2.419   0.785  0.00  0.00    -0.286 OA
ATOM      6  C   UNL d   1      -0.569  -0.847   0.263  0.00  0.00     0.059 A 
ATOM      7  C   UNL d   1      -1.625  -1.687   0.639  0.00  0.00     0.021 A 
ATOM      8  C   UNL d   1      -2.943  -1.244   0.536  0.00  0.00     0.025 A 
ATOM      9  C   UNL d   1      -3.196   0.041   0.054  0.00  0.00     0.007 A 
ATOM     10  C   UNL d   1      -4.595   0.526  -0.062  0.00  0.00     0.068 C 
ATOM     11  N   UNL d   1      -2.165   0.849  -0.310  0.00  0.00    -0.345 N 
ATOM     12  HN  UNL d   1      -2.370   1.785  -0.660  1.00  0.00     0.167 HD
ATOM     13  C   UNL d   1      -0.864   0.447  -0.220  0.00  0.00     0.122 A 
ENDROOT
BRANCH   3  14
ATOM     14  C   UNL d   1       3.234  -0.740   0.031  0.00  0.00     0.214 C 
ATOM     15  O   UNL d   1       4.197   0.179  -0.369  0.00  0.00    -0.644 OA
ATOM     16  O   UNL d   1       3.605  -1.870   0.447  0.00  0.00    -0.644 OA
ENDBRANCH   3  14
BRANCH   1  17
ATOM     17  C   UNL d   1      -0.125   2.628  -1.085  0.00  0.00     0.125 C 
ATOM     18  C   UNL d   1      -0.159   3.611   0.072  0.00  0.00     0.027 C 
ENDBRANCH   1  17
TORSDOF 2
