REMARK  5 active torsions:
REMARK  status: ('A' for Active; 'I' for Inactive)
REMARK    1  A    between atoms: C_4  and  C_7 
REMARK    2  A    between atoms: C_7  and  N_8 
REMARK    3  A    between atoms: N_8  and  C_9 
REMARK    4  A    between atoms: N_8  and  C_15 
REMARK    5  A    between atoms: C_9  and  C_10 
ROOT
ATOM      1  N   UNL d   1       0.424   0.410  -1.314  0.00  0.00    -0.370 N 
ENDROOT
BRANCH   1   2
ATOM      2  C   UNL d   1       1.730   0.660  -0.704  0.00  0.00     0.162 C 
BRANCH   2   3
ATOM      3  C   UNL d   1       1.768   0.145   0.697  0.00  0.00    -0.040 A 
ATOM      4  C   UNL d   1       2.542  -0.979   1.002  0.00  0.00     0.009 A 
ATOM      5  C   UNL d   1       2.564  -1.482   2.307  0.00  0.00     0.001 A 
ATOM      6  C   UNL d   1       1.812  -0.861   3.308  0.00  0.00     0.000 A 
ATOM      7  C   UNL d   1       1.038   0.263   3.006  0.00  0.00     0.001 A 
ATOM      8  C   UNL d   1       1.016   0.766   1.702  0.00  0.00     0.009 A 
ENDBRANCH   2   3
ENDBRANCH   1   2
BRANCH   1   9
ATOM      9  C   UNL d   1       0.161  -0.913  -1.874  0.00  0.00     0.199 C 
BRANCH   9  10
ATOM     10  C   UNL d   1      -0.332  -1.842  -0.815  0.00  0.00     0.091 A 
ATOM     11  N   UNL d   1      -1.499  -1.597  -0.056  0.00  0.00    -0.377 N 
ATOM     12  C   UNL d   1      -1.621  -2.704   0.874  0.00  0.00     0.140 A 
ATOM     13  HN  UNL d   1      -2.130  -0.801  -0.145  1.00  0.00     0.160 HD
ATOM     14  C   UNL d   1      -0.423  -3.603   0.562  0.00  0.00     0.140 A 
ATOM     15  N   UNL d   1       0.287  -2.927  -0.511  0.00  0.00    -0.377 N 
ATOM     16  HN  UNL d   1       1.142  -3.261  -0.954  1.00  0.00     0.160 HD
ENDBRANCH   9  10
ENDBRANCH   1   9
BRANCH   1  17
ATOM     17  C   UNL d   1      -0.588   1.438  -1.338  0.00  0.00     0.030 A 
ATOM     18  C   UNL d   1      -0.332   2.708  -0.794  0.00  0.00     0.029 A 
ATOM     19  C   UNL d   1      -1.312   3.704  -0.818  0.00  0.00     0.002 A 
ATOM     20  C   UNL d   1      -2.560   3.442  -1.388  0.00  0.00     0.000 A 
ATOM     21  C   UNL d   1      -2.828   2.184  -1.935  0.00  0.00     0.002 A 
ATOM     22  C   UNL d   1      -1.847   1.189  -1.911  0.00  0.00     0.029 A 
ENDBRANCH   1  17
TORSDOF 5
