REMARK  7 active torsions:
REMARK  status: ('A' for Active; 'I' for Inactive)
REMARK    1  A    between atoms: C_5  and  C_6 
REMARK    2  A    between atoms: C_6  and  O_7 
REMARK    3  A    between atoms: O_7  and  C_8 
REMARK    4  A    between atoms: C_12  and  C_16 
REMARK    5  A    between atoms: C_20  and  C_21 
REMARK    6  A    between atoms: C_21  and  N_22 
REMARK    7  A    between atoms: C_25  and  C_30 
ROOT
ATOM      1  C   UNL d   1      -6.336  -0.678  -0.100  0.00  0.00    -0.007 A 
ATOM      2  C   UNL d   1      -7.172  -1.805  -0.043  0.00  0.00     0.014 A 
ATOM      3  C   UNL d   1      -8.273  -1.828   0.818  0.00  0.00     0.002 A 
ATOM      4  C   UNL d   1      -8.548  -0.724   1.630  0.00  0.00     0.023 A 
ATOM      5  C   UNL d   1      -7.723   0.402   1.581  0.00  0.00     0.045 A 
ATOM      6  C   UNL d   1      -6.622   0.424   0.720  0.00  0.00     0.036 A 
ATOM      7  C   UNL d   1      -8.004   1.536   2.415  0.00  0.00     0.099 C 
ATOM      8  N   UNL d   1      -8.231   2.450   3.088  0.00  0.00    -0.191 NA
ENDROOT
BRANCH   1   9
ATOM      9  C   UNL d   1      -5.168  -0.643  -1.006  0.00  0.00     0.058 A 
ATOM     10  N   UNL d   1      -4.371   0.460  -1.052  0.00  0.00    -0.295 N 
ATOM     11  N   UNL d   1      -3.305   0.534  -1.853  0.00  0.00    -0.253 N 
ATOM     12  HN  UNL d   1      -4.596   1.256  -0.455  1.00  0.00     0.187 HD
ATOM     13  C   UNL d   1      -2.967  -0.512  -2.665  0.00  0.00     0.262 A 
ATOM     14  C   UNL d   1      -3.747  -1.666  -2.660  0.00  0.00     0.078 A 
ATOM     15  O   UNL d   1      -1.959  -0.448  -3.419  0.00  0.00    -0.267 OA
ATOM     16  C   UNL d   1      -4.857  -1.733  -1.825  0.00  0.00     0.037 A 
BRANCH  11  17
ATOM     17  C   UNL d   1      -2.494   1.746  -1.824  0.00  0.00     0.191 C 
BRANCH  17  18
ATOM     18  C   UNL d   1      -1.552   1.708  -0.668  0.00  0.00    -0.037 A 
ATOM     19  C   UNL d   1      -1.928   2.263   0.559  0.00  0.00     0.009 A 
ATOM     20  C   UNL d   1      -1.058   2.202   1.650  0.00  0.00     0.002 A 
ATOM     21  C   UNL d   1       0.187   1.580   1.516  0.00  0.00     0.015 A 
ATOM     22  C   UNL d   1       0.571   1.014   0.291  0.00  0.00     0.009 A 
ATOM     23  C   UNL d   1      -0.310   1.080  -0.798  0.00  0.00     0.024 A 
BRANCH  22  24
ATOM     24  C   UNL d   1       1.882   0.352   0.151  0.00  0.00     0.115 A 
ATOM     25  N   UNL d   1       2.735   0.289   1.211  0.00  0.00    -0.349 N 
ATOM     26  C   UNL d   1       3.946  -0.316   1.101  0.00  0.00     0.128 A 
ATOM     27  HN  UNL d   1       2.460   0.702   2.101  1.00  0.00     0.167 HD
ATOM     28  C   UNL d   1       4.336  -0.887  -0.116  0.00  0.00     0.099 A 
ATOM     29  C   UNL d   1       3.450  -0.814  -1.188  0.00  0.00     0.128 A 
ATOM     30  N   UNL d   1       2.248  -0.201  -1.039  0.00  0.00    -0.349 N 
ATOM     31  HN  UNL d   1       1.608  -0.153  -1.831  1.00  0.00     0.167 HD
BRANCH  28  32
ATOM     32  O   UNL d   1       5.571  -1.522  -0.280  0.00  0.00    -0.348 OA
BRANCH  32  33
ATOM     33  C   UNL d   1       6.551  -1.599   0.751  0.00  0.00     0.180 C 
BRANCH  33  34
ATOM     34  C   UNL d   1       7.267  -0.261   0.913  0.00  0.00     0.013 C 
ATOM     35  C   UNL d   1       8.144  -0.257   2.160  0.00  0.00     0.037 C 
ATOM     36  C   UNL d   1       9.377  -1.151   1.975  0.00  0.00     0.272 C 
ATOM     37  N   UNL d   1      10.162  -0.793   0.786  0.00  0.00     0.084 N 
ATOM     38  C   UNL d   1      10.763   0.525   0.958  0.00  0.00     0.309 C 
ATOM     39  C   UNL d   1       9.334  -0.817  -0.427  0.00  0.00     0.272 C 
ATOM     40  C   UNL d   1       8.100   0.088  -0.318  0.00  0.00     0.037 C 
ENDBRANCH  33  34
ENDBRANCH  32  33
ENDBRANCH  28  32
ENDBRANCH  22  24
ENDBRANCH  17  18
ENDBRANCH  11  17
ENDBRANCH   1   9
TORSDOF 7
