REMARK  7 active torsions:
REMARK  status: ('A' for Active; 'I' for Inactive)
REMARK    1  A    between atoms: N_8  and  C_9 
REMARK    2  A    between atoms: C_9  and  C_10 
REMARK       I    between atoms: C_10  and  N_12 
REMARK    3  A    between atoms: N_12  and  CA_13 
REMARK    4  A    between atoms: CA_18  and  C_31 
REMARK    5  A    between atoms: C_19  and  C_22 
REMARK    6  A    between atoms: C_22  and  S_23 
REMARK    7  A    between atoms: S_23  and  C_24 
ROOT
ATOM      1  CA  UNL d   1       1.691   5.565  -0.285  0.00  0.00     0.210 C 
ATOM      2  C   UNL d   1       2.325   4.394   0.444  0.00  0.00     0.187 C 
ATOM      3  N   UNL d   1       1.245   3.515  -0.085  0.00  0.00    -0.293 N 
ATOM      4  C   UNL d   1       0.545   4.590  -0.426  0.00  0.00     0.251 C 
ATOM      5  O   UNL d   1      -0.616   4.739  -0.743  0.00  0.00    -0.271 OA
ATOM      6  CA  UNL d   1       1.259   2.118  -0.182  0.00  0.00     0.119 C 
ATOM      7  C   UNL d   1       2.401   1.450  -0.108  0.00  0.00    -0.027 C 
ATOM      8  C   UNL d   1       3.766   1.986   0.147  0.00  0.00     0.113 C 
ATOM      9  S   UNL d   1       3.881   3.754  -0.265  0.00  0.00    -0.136 SA
ENDROOT
BRANCH   1  10
ATOM     10  N   UNL d   1       2.345   5.919  -1.547  0.00  0.00    -0.344 N 
ATOM     11  C   UNL d   1       2.244   7.173  -2.030  0.00  0.00     0.238 C 
ATOM     12  O   UNL d   1       1.611   8.009  -1.420  0.00  0.00    -0.272 OA
ATOM     13  H   UNL d   1       2.851   5.251  -2.035  0.00  0.00     0.163 HD
BRANCH  11  14
ATOM     14  C   UNL d   1       2.917   7.537  -3.328  0.00  0.00     0.254 C 
BRANCH  14  15
ATOM     15  N   UNL d   1       2.658   8.947  -3.634  0.00  0.00    -0.262 N 
ATOM     16  C   UNL d   1       3.583   9.895  -3.872  0.00  0.00     0.220 A 
ATOM     17  N   UNL d   1       2.929  11.008  -4.103  0.00  0.00    -0.279 N 
ATOM     18  N   UNL d   1       1.670  10.758  -4.002  0.00  0.00    -0.227 N 
ATOM     19  HN  UNL d   1       3.345  11.913  -4.323  1.00  0.00     0.189 HD
ATOM     20  N   UNL d   1       1.502   9.513  -3.719  0.00  0.00    -0.225 N 
ATOM     21  HN  UNL d   1       0.921  11.440  -4.127  1.00  0.00     0.210 HD
ATOM     22  HN  UNL d   1       0.603   9.051  -3.583  1.00  0.00     0.210 HD
ENDBRANCH  14  15
ENDBRANCH  11  14
ENDBRANCH   1  10
BRANCH   6  23
ATOM     23  C   UNL d   1      -0.007   1.384  -0.361  0.00  0.00     0.227 C 
ATOM     24  O   UNL d   1      -0.451   1.203  -1.478  0.00  0.00    -0.643 OA
ATOM     25  OXT UNL d   1      -0.669   0.910   0.713  0.00  0.00    -0.643 OA
ENDBRANCH   6  23
BRANCH   7  26
ATOM     26  C   UNL d   1       2.303  -0.044  -0.275  0.00  0.00     0.119 C 
BRANCH  26  27
ATOM     27  S   UNL d   1       2.797  -0.497  -1.956  0.00  0.00    -0.099 SA
BRANCH  27  28
ATOM     28  C   UNL d   1       2.594  -2.246  -1.874  0.00  0.00     0.128 A 
ATOM     29  S   UNL d   1       2.861  -3.497  -3.126  0.00  0.00    -0.057 SA
ATOM     30  C   UNL d   1       2.400  -4.891  -2.103  0.00  0.00     0.159 A 
ATOM     31  N   UNL d   1       2.103  -4.265  -0.982  0.00  0.00    -0.304 N 
ATOM     32  N   UNL d   1       2.193  -3.012  -0.868  0.00  0.00    -0.288 N 
ATOM     33  HN  UNL d   1       1.790  -4.812  -0.180  1.00  0.00     0.186 HD
ATOM     34  HN  UNL d   1       1.951  -2.577   0.022  1.00  0.00     0.188 HD
ENDBRANCH  27  28
ENDBRANCH  26  27
ENDBRANCH   7  26
TORSDOF 7
