REMARK  17 active torsions:
REMARK  status: ('A' for Active; 'I' for Inactive)
REMARK    1  A    between atoms: C_2  and  N_51 
REMARK    2  A    between atoms: C_3  and  O_19 
REMARK    3  A    between atoms: C_4  and  O_18 
REMARK    4  A    between atoms: C_5  and  O_7 
REMARK    5  A    between atoms: C_6  and  N_45 
REMARK    6  A    between atoms: O_7  and  C_8 
REMARK    7  A    between atoms: C_9  and  O_17 
REMARK    8  A    between atoms: C_10  and  O_16 
REMARK    9  A    between atoms: C_11  and  O_15 
REMARK   10  A    between atoms: C_12  and  C_14 
REMARK   11  A    between atoms: C_14  and  N_47 
REMARK   12  A    between atoms: O_19  and  C_20 
REMARK   13  A    between atoms: C_21  and  O_29 
REMARK   14  A    between atoms: C_22  and  N_49 
REMARK   15  A    between atoms: C_23  and  O_28 
REMARK   16  A    between atoms: C_24  and  C_26 
REMARK   17  A    between atoms: C_26  and  O_27 
ROOT
ATOM      1  C   UNL d   1      -1.352  -2.035  -0.946  0.00  0.00     0.071 C 
ATOM      2  C   UNL d   1      -1.466  -2.755   0.399  0.00  0.00     0.217 C 
ATOM      3  C   UNL d   1      -0.226  -2.456   1.244  0.00  0.00     0.186 C 
ATOM      4  C   UNL d   1      -0.121  -0.948   1.480  0.00  0.00     0.180 C 
ATOM      5  C   UNL d   1      -0.007  -0.228   0.135  0.00  0.00     0.186 C 
ATOM      6  C   UNL d   1      -1.247  -0.527  -0.710  0.00  0.00     0.217 C 
ENDROOT
BRANCH   3   7
ATOM      7  O   UNL d   1      -0.333  -3.128   2.501  0.00  0.00    -0.349 OA
BRANCH   7   8
ATOM      8  C   UNL d   1       0.925  -3.501   3.069  0.00  0.00     0.291 C 
ATOM      9  O   UNL d   1       1.620  -2.329   3.498  0.00  0.00    -0.349 OA
ATOM     10  C   UNL d   1       2.908  -2.587   4.062  0.00  0.00     0.179 C 
ATOM     11  C   UNL d   1       2.752  -3.471   5.302  0.00  0.00     0.182 C 
ATOM     12  C   UNL d   1       2.038  -4.768   4.909  0.00  0.00     0.247 C 
ATOM     13  C   UNL d   1       0.690  -4.421   4.270  0.00  0.00     0.206 C 
BRANCH  10  14
ATOM     14  C   UNL d   1       3.567  -1.264   4.457  0.00  0.00     0.198 C 
BRANCH  14  15
ATOM     15  O   UNL d   1       3.818  -0.488   3.284  0.00  0.00    -0.398 OA
ATOM     16  H   UNL d   1       4.235   0.366   3.460  0.00  0.00     0.209 HD
ENDBRANCH  14  15
ENDBRANCH  10  14
BRANCH  11  17
ATOM     17  O   UNL d   1       1.981  -2.780   6.287  0.00  0.00    -0.391 OA
ATOM     18  H   UNL d   1       2.374  -1.948   6.583  0.00  0.00     0.210 HD
ENDBRANCH  11  17
BRANCH  12  19
ATOM     19  N   UNL d   1       1.802  -5.574   6.120  0.00  0.00    -0.070 N 
ATOM     20  H   UNL d   1       1.340  -6.447   5.874  0.00  0.00     0.274 HD
ATOM     21  H   UNL d   1       2.687  -5.777   6.582  0.00  0.00     0.274 HD
ATOM     22  H   UNL d   1       1.200  -5.047   6.764  0.00  0.00     0.274 HD
ENDBRANCH  12  19
BRANCH  13  23
ATOM     23  O   UNL d   1      -0.137  -3.756   5.227  0.00  0.00    -0.388 OA
ATOM     24  H   UNL d   1      -1.006  -3.502   4.888  0.00  0.00     0.210 HD
ENDBRANCH  13  23
ENDBRANCH   7   8
ENDBRANCH   3   7
BRANCH   2  25
ATOM     25  N   UNL d   1      -1.569  -4.211   0.197  0.00  0.00    -0.072 N 
ATOM     26  H   UNL d   1      -2.378  -4.427  -0.384  0.00  0.00     0.274 HD
ATOM     27  H   UNL d   1      -0.725  -4.561  -0.254  0.00  0.00     0.274 HD
ATOM     28  H   UNL d   1      -1.678  -4.672   1.108  0.00  0.00     0.274 HD
ENDBRANCH   2  25
BRANCH   4  29
ATOM     29  O   UNL d   1      -1.288  -0.491   2.168  0.00  0.00    -0.390 OA
ATOM     30  H   UNL d   1      -1.290   0.458   2.351  0.00  0.00     0.210 HD
ENDBRANCH   4  29
BRANCH   5  31
ATOM     31  O   UNL d   1       0.091   1.181   0.355  0.00  0.00    -0.349 OA
BRANCH  31  32
ATOM     32  C   UNL d   1       1.431   1.654   0.502  0.00  0.00     0.292 C 
ATOM     33  O   UNL d   1       2.105   1.574  -0.755  0.00  0.00    -0.349 OA
ATOM     34  C   UNL d   1       3.468   2.001  -0.715  0.00  0.00     0.181 C 
ATOM     35  C   UNL d   1       3.528   3.471  -0.291  0.00  0.00     0.180 C 
ATOM     36  C   UNL d   1       2.847   3.629   1.072  0.00  0.00     0.183 C 
ATOM     37  C   UNL d   1       1.409   3.110   0.975  0.00  0.00     0.204 C 
BRANCH  34  38
ATOM     38  C   UNL d   1       4.093   1.845  -2.103  0.00  0.00     0.264 C 
BRANCH  38  39
ATOM     39  N   UNL d   1       4.049   0.424  -2.492  0.00  0.00    -0.077 N 
ATOM     40  H   UNL d   1       3.087   0.090  -2.484  0.00  0.00     0.274 HD
ATOM     41  H   UNL d   1       4.442   0.305  -3.424  0.00  0.00     0.274 HD
ATOM     42  H   UNL d   1       4.600  -0.126  -1.823  0.00  0.00     0.274 HD
ENDBRANCH  38  39
ENDBRANCH  34  38
BRANCH  35  43
ATOM     43  O   UNL d   1       2.851   4.276  -1.259  0.00  0.00    -0.390 OA
ATOM     44  H   UNL d   1       2.850   5.220  -1.053  0.00  0.00     0.210 HD
ENDBRANCH  35  43
BRANCH  36  45
ATOM     45  O   UNL d   1       2.833   5.009   1.443  0.00  0.00    -0.390 OA
ATOM     46  H   UNL d   1       2.415   5.183   2.297  0.00  0.00     0.210 HD
ENDBRANCH  36  45
BRANCH  37  47
ATOM     47  O   UNL d   1       0.676   3.905   0.041  0.00  0.00    -0.388 OA
ATOM     48  H   UNL d   1      -0.243   3.629  -0.075  0.00  0.00     0.210 HD
ENDBRANCH  37  47
ENDBRANCH  31  32
ENDBRANCH   5  31
BRANCH   6  49
ATOM     49  N   UNL d   1      -2.443  -0.069   0.019  0.00  0.00    -0.072 N 
ATOM     50  H   UNL d   1      -2.442   0.947   0.087  0.00  0.00     0.274 HD
ATOM     51  H   UNL d   1      -3.285  -0.376  -0.465  0.00  0.00     0.274 HD
ATOM     52  H   UNL d   1      -2.435  -0.468   0.965  0.00  0.00     0.274 HD
ENDBRANCH   6  49
TORSDOF 17
