REMARK  4 active torsions:
REMARK  status: ('A' for Active; 'I' for Inactive)
REMARK    1  A    between atoms: C_5  and  C_8 
REMARK    2  A    between atoms: C_8  and  C_15 
REMARK    3  A    between atoms: C_9  and  C_10 
REMARK    4  A    between atoms: C_10  and  N_22 
ROOT
ATOM      1  C   UNL d   1       0.072   5.294   0.146  0.00  0.00    -0.001 C 
ATOM      2  C   UNL d   1      -1.057   5.984  -0.057  0.00  0.00     0.015 C 
ENDROOT
BRANCH   1   3
ATOM      3  C   UNL d   1       1.386   5.968   0.013  0.00  0.00    -0.024 A 
ATOM      4  C   UNL d   1       2.213   6.114   1.126  0.00  0.00     0.013 A 
ATOM      5  C   UNL d   1       3.436   6.741   0.996  0.00  0.00     0.007 A 
ATOM      6  C   UNL d   1       3.841   7.224  -0.235  0.00  0.00    -0.062 A 
ATOM      7  C   UNL d   1       5.177   7.908  -0.370  0.00  0.00     0.048 C 
ATOM      8  C   UNL d   1       3.025   7.082  -1.343  0.00  0.00     0.007 A 
ATOM      9  C   UNL d   1       1.802   6.452  -1.226  0.00  0.00     0.013 A 
ENDBRANCH   1   3
BRANCH   1  10
ATOM     10  C   UNL d   1       0.008   3.857   0.504  0.00  0.00     0.042 A 
ATOM     11  N   UNL d   1      -0.469   3.495   1.688  0.00  0.00    -0.365 N 
ATOM     12  C   UNL d   1      -0.542   2.228   2.045  0.00  0.00     0.088 A 
ATOM     13  HN  UNL d   1      -0.786   4.214   2.339  1.00  0.00     0.165 HD
ATOM     14  C   UNL d   1      -0.122   1.225   1.191  0.00  0.00     0.017 A 
ATOM     15  C   UNL d   1       0.389   1.561  -0.055  0.00  0.00     0.004 A 
ATOM     16  C   UNL d   1       0.449   2.898  -0.406  0.00  0.00     0.030 A 
ENDBRANCH   1  10
BRANCH   2  17
ATOM     17  C   UNL d   1      -2.386   5.274  -0.048  0.00  0.00     0.263 C 
BRANCH  17  18
ATOM     18  N   UNL d   1      -3.293   5.915   0.951  0.00  0.00    -0.068 N 
ATOM     19  C   UNL d   1      -3.357   7.368   0.726  0.00  0.00     0.235 C 
ATOM     20  C   UNL d   1      -4.666   7.758   1.457  0.00  0.00     0.029 C 
ATOM     21  C   UNL d   1      -5.597   6.560   1.161  0.00  0.00     0.029 C 
ATOM     22  C   UNL d   1      -4.654   5.393   0.816  0.00  0.00     0.235 C 
ATOM     23  H   UNL d   1      -2.940   5.726   1.896  0.00  0.00     0.280 HD
ENDBRANCH  17  18
ENDBRANCH   2  17
TORSDOF 4
