REMARK  10 active torsions:
REMARK  status: ('A' for Active; 'I' for Inactive)
REMARK    1  A    between atoms: C_4  and  N_52 
REMARK    2  A    between atoms: C_5  and  O_46 
REMARK    3  A    between atoms: C_6  and  O_8 
REMARK    4  A    between atoms: O_8  and  C_9 
REMARK    5  A    between atoms: C_15  and  O_16 
REMARK    6  A    between atoms: C_19  and  O_43 
REMARK    7  A    between atoms: C_26  and  O_29 
REMARK    8  A    between atoms: O_29  and  C_30 
REMARK    9  A    between atoms: C_32  and  O_38 
REMARK   10  A    between atoms: C_33  and  O_37 
ROOT
ATOM      1  C   UNL d   1       2.367   1.740   5.685  0.00  0.00     0.134 C 
ATOM      2  C   UNL d   1       3.356   1.280   4.533  0.00  0.00     0.014 C 
ATOM      3  C   UNL d   1       4.101   2.556   4.053  0.00  0.00     0.049 C 
ATOM      4  C   UNL d   1       4.929   2.216   2.767  0.00  0.00     0.109 A 
ATOM      5  C   UNL d   1       6.321   1.543   2.990  0.00  0.00     0.209 A 
ATOM      6  O   UNL d   1       6.133   2.937   2.728  0.00  0.00    -0.372 OA
ATOM      7  C   UNL d   1       4.146   2.035   1.560  0.00  0.00     0.161 C 
ATOM      8  C   UNL d   1       3.332   0.853   1.162  0.00  0.00     0.042 C 
ATOM      9  C   UNL d   1       2.365   1.296   0.083  0.00  0.00     0.130 C 
ATOM     10  C   UNL d   1       1.444   0.107  -0.330  0.00  0.00     0.040 C 
ATOM     11  C   UNL d   1       0.053   0.121   0.496  0.00  0.00     0.134 C 
ATOM     12  O   UNL d   1       0.311   0.262   1.886  0.00  0.00    -0.316 OA
ATOM     13  C   UNL d   1      -0.665  -0.171   2.727  0.00  0.00     0.265 C 
ATOM     14  O   UNL d   1      -1.735  -0.453   2.269  0.00  0.00    -0.265 OA
ATOM     15  C   UNL d   1      -0.384  -0.302   4.232  0.00  0.00     0.111 C 
ATOM     16  C   UNL d   1       0.123   1.076   4.742  0.00  0.00     0.144 C 
ATOM     17  C   UNL d   1       1.246   0.753   5.818  0.00  0.00     0.041 C 
ATOM     18  C   UNL d   1       0.680   0.788   7.235  0.00  0.00     0.015 C 
ATOM     19  C   UNL d   1      -1.729  -0.598   4.909  0.00  0.00     0.023 C 
ATOM     20  C   UNL d   1      -0.870   1.190  -0.061  0.00  0.00     0.040 C 
ATOM     21  C   UNL d   1       1.147   0.123  -1.774  0.00  0.00     0.015 C 
ATOM     22  C   UNL d   1       4.399  -0.181   0.599  0.00  0.00     0.015 C 
ATOM     23  C   UNL d   1       4.391   0.348   5.115  0.00  0.00     0.012 C 
ENDROOT
BRANCH   1  24
ATOM     24  O   UNL d   1       1.962   3.086   5.531  0.00  0.00    -0.352 OA
BRANCH  24  25
ATOM     25  C   UNL d   1       2.857   4.032   6.119  0.00  0.00     0.291 C 
ATOM     26  C   UNL d   1       2.194   5.412   6.146  0.00  0.00     0.204 C 
ATOM     27  C   UNL d   1       3.135   6.408   6.832  0.00  0.00     0.223 C 
ATOM     28  C   UNL d   1       3.468   5.895   8.236  0.00  0.00     0.067 C 
ATOM     29  C   UNL d   1       4.081   4.497   8.128  0.00  0.00     0.122 C 
ATOM     30  C   UNL d   1       4.362   3.953   9.530  0.00  0.00     0.040 C 
ATOM     31  O   UNL d   1       3.168   3.628   7.454  0.00  0.00    -0.354 OA
BRANCH  26  32
ATOM     32  O   UNL d   1       0.966   5.338   6.873  0.00  0.00    -0.389 OA
ATOM     33  H   UNL d   1       0.323   4.721   6.497  0.00  0.00     0.210 HD
ENDBRANCH  26  32
BRANCH  27  34
ATOM     34  N   UNL d   1       2.454   7.715   6.946  0.00  0.00    -0.072 N 
ATOM     35  C   UNL d   1       3.353   8.699   7.584  0.00  0.00     0.269 C 
ATOM     36  C   UNL d   1       2.050   8.193   5.607  0.00  0.00     0.269 C 
ATOM     37  H   UNL d   1       1.615   7.604   7.528  0.00  0.00     0.279 HD
ENDBRANCH  27  34
ENDBRANCH  24  25
ENDBRANCH   1  24
BRANCH  16  38
ATOM     38  O   UNL d   1       0.653   1.875   3.760  0.00  0.00    -0.355 OA
BRANCH  38  39
ATOM     39  C   UNL d   1      -0.203   2.945   3.356  0.00  0.00     0.263 C 
ATOM     40  O   UNL d   1      -0.184   3.972   4.350  0.00  0.00    -0.354 OA
ATOM     41  C   UNL d   1      -1.031   5.084   4.056  0.00  0.00     0.151 C 
ATOM     42  C   UNL d   1      -0.574   5.742   2.752  0.00  0.00     0.175 C 
ATOM     43  C   UNL d   1      -0.952   6.101   5.196  0.00  0.00     0.042 C 
ATOM     44  C   UNL d   1      -0.599   4.702   1.628  0.00  0.00     0.156 C 
ATOM     45  C   UNL d   1       0.288   3.517   2.024  0.00  0.00     0.095 C 
BRANCH  42  46
ATOM     46  O   UNL d   1       0.755   6.243   2.909  0.00  0.00    -0.390 OA
ATOM     47  H   UNL d   1       0.845   6.908   3.606  0.00  0.00     0.210 HD
ENDBRANCH  42  46
BRANCH  44  48
ATOM     48  O   UNL d   1      -0.103   5.288   0.423  0.00  0.00    -0.388 OA
ATOM     49  C   UNL d   1      -0.659   4.726  -0.768  0.00  0.00     0.202 C 
ENDBRANCH  44  48
ENDBRANCH  38  39
ENDBRANCH  16  38
BRANCH   7  50
ATOM     50  O   UNL d   1       4.229   2.998   0.681  0.00  0.00    -0.392 OA
ATOM     51  HO  UNL d   1       3.717   2.879  -0.110  1.00  0.00     0.210 HD
ENDBRANCH   7  50
BRANCH   9  52
ATOM     52  O   UNL d   1       1.649   2.419   0.482  0.00  0.00    -0.395 OA
ATOM     53  H   UNL d   1       2.204   3.167   0.741  0.00  0.00     0.210 HD
ENDBRANCH   9  52
TORSDOF 10
