REMARK  0 active torsions:
REMARK  status: ('A' for Active; 'I' for Inactive)
ROOT
ATOM      1  C   UNL d   1       5.207  -2.404  -0.253  0.00  0.00     0.089 C 
ATOM      2  C   UNL d   1       3.797  -1.876  -0.322  0.00  0.00     0.087 C 
ATOM      3  N   UNL d   1       3.604  -0.630  -0.071  0.00  0.00    -0.344 N 
ATOM      4  HN  UNL d   1       4.438  -0.074   0.118  1.00  0.00     0.167 HD
ATOM      5  C   UNL d   1       2.415   0.033  -0.030  0.00  0.00     0.057 A 
ATOM      6  C   UNL d   1       2.384   1.431  -0.018  0.00  0.00     0.033 A 
ATOM      7  C   UNL d   1       1.173   2.091   0.002  0.00  0.00     0.026 A 
ATOM      8  C   UNL d   1      -0.017   1.383   0.010  0.00  0.00     0.035 A 
ATOM      9  C   UNL d   1       0.002  -0.004   0.002  0.00  0.00     0.051 A 
ATOM     10  C   UNL d   1       1.203  -0.665  -0.013  0.00  0.00     0.108 A 
ATOM     11  S   UNL d   1       1.284  -2.433  -0.002  0.00  0.00     0.266 S 
ATOM     12  O   UNL d   1       1.314  -2.844   1.358  0.00  0.00    -0.200 OA
ATOM     13  O   UNL d   1       0.319  -2.904  -0.932  0.00  0.00    -0.200 OA
ATOM     14  N   UNL d   1       2.792  -2.754  -0.648  0.00  0.00    -0.270 N 
ATOM     15 CL   UNL d   1      -1.531   2.231   0.021  0.00  0.00    -0.084 Cl
ATOM     16  H   UNL d   1       2.948  -3.519  -1.223  0.00  0.00     0.180 HD
ENDROOT
TORSDOF 0
