REMARK  8 active torsions:
REMARK  status: ('A' for Active; 'I' for Inactive)
REMARK    1  A    between atoms: C_2  and  O_4 
REMARK    2  A    between atoms: O_4  and  C_5 
REMARK    3  A    between atoms: C_5  and  C_6 
REMARK    4  A    between atoms: CA_7  and  C_27 
REMARK    5  A    between atoms: CA_10  and  N_13 
REMARK       I    between atoms: N_13  and  C_14 
REMARK    6  A    between atoms: C_14  and  C_16 
REMARK    7  A    between atoms: C_16  and  S_17 
REMARK    8  A    between atoms: S_17  and  C_18 
ROOT
ATOM      1  C   UNL d   1      -0.760   1.570  -1.219  0.00  0.00    -0.013 C 
ATOM      2  CA  UNL d   1      -1.878   2.236  -0.972  0.00  0.00     0.121 C 
ATOM      3  N   UNL d   1      -2.599   2.822  -2.025  0.00  0.00    -0.293 N 
ATOM      4  C   UNL d   1      -2.513   2.455  -3.474  0.00  0.00     0.187 C 
ATOM      5  CA  UNL d   1      -3.181   3.801  -3.732  0.00  0.00     0.210 C 
ATOM      6  C   UNL d   1      -3.392   3.889  -2.230  0.00  0.00     0.251 C 
ATOM      7  O   UNL d   1      -4.024   4.627  -1.504  0.00  0.00    -0.271 OA
ATOM      8  S   UNL d   1      -0.729   2.385  -3.849  0.00  0.00    -0.136 SA
ATOM      9  C   UNL d   1      -0.129   1.272  -2.539  0.00  0.00     0.115 C 
ENDROOT
BRANCH   5  10
ATOM     10  N   UNL d   1      -4.428   3.702  -4.495  0.00  0.00    -0.344 N 
ATOM     11  C   UNL d   1      -4.859   4.753  -5.221  0.00  0.00     0.228 C 
ATOM     12  O   UNL d   1      -4.216   5.781  -5.241  0.00  0.00    -0.273 OA
ATOM     13  H   UNL d   1      -4.943   2.880  -4.479  0.00  0.00     0.163 HD
BRANCH  11  14
ATOM     14  C   UNL d   1      -6.141   4.651  -6.006  0.00  0.00     0.182 C 
BRANCH  14  15
ATOM     15  S   UNL d   1      -6.448   6.216  -6.869  0.00  0.00    -0.121 SA
BRANCH  15  16
ATOM     16  C   UNL d   1      -7.961   5.940  -7.729  0.00  0.00     0.003 A 
ATOM     17  C   UNL d   1      -8.528   6.940  -8.521  0.00  0.00     0.035 A 
ATOM     18  C   UNL d   1      -9.712   6.683  -9.177  0.00  0.00     0.089 A 
ATOM     19  N   UNL d   1     -10.309   5.511  -9.064  0.00  0.00    -0.375 N 
ATOM     20  C   UNL d   1      -9.805   4.540  -8.325  0.00  0.00     0.089 A 
ATOM     21  HN  UNL d   1     -11.185   5.351  -9.562  1.00  0.00     0.164 HD
ATOM     22  C   UNL d   1      -8.620   4.713  -7.642  0.00  0.00     0.035 A 
ENDBRANCH  15  16
ENDBRANCH  14  15
ENDBRANCH  11  14
ENDBRANCH   5  10
BRANCH   2  23
ATOM     23  C   UNL d   1      -2.363   2.367   0.414  0.00  0.00     0.227 C 
ATOM     24  O   UNL d   1      -3.444   2.877   0.633  0.00  0.00    -0.643 OA
ATOM     25  OXT UNL d   1      -1.608   1.921   1.438  0.00  0.00    -0.643 OA
ENDBRANCH   2  23
BRANCH   1  26
ATOM     26  C   UNL d   1      -0.033   1.038  -0.010  0.00  0.00     0.216 C 
BRANCH  26  27
ATOM     27  O   UNL d   1       1.115   0.261  -0.440  0.00  0.00    -0.317 OA
BRANCH  27  28
ATOM     28  C   UNL d   1       1.815  -0.371   0.516  0.00  0.00     0.255 C 
ATOM     29  C   UNL d   1       3.084  -1.104   0.161  0.00  0.00     0.126 C 
ATOM     30  O   UNL d   1       1.428  -0.353   1.660  0.00  0.00    -0.266 OA
ENDBRANCH  27  28
ENDBRANCH  26  27
ENDBRANCH   1  26
TORSDOF 8
