REMARK  6 active torsions:
REMARK  status: ('A' for Active; 'I' for Inactive)
REMARK    1  A    between atoms: C_4  and  N_7 
REMARK    2  A    between atoms: C_10  and  C_20 
REMARK    3  A    between atoms: N_13  and  C_14 
REMARK    4  A    between atoms: C_20  and  C_21 
REMARK    5  A    between atoms: C_21  and  S_22 
REMARK    6  A    between atoms: S_22  and  C_24 
ROOT
ATOM      1  N   UNL d   1      -5.848   7.125  -3.659  0.00  0.00    -0.214 N 
ATOM      2  C   UNL d   1      -6.179   5.843  -3.413  0.00  0.00     0.257 A 
ATOM      3  O   UNL d   1      -7.247   5.432  -3.010  0.00  0.00    -0.270 OA
ATOM      4  C   UNL d   1      -4.952   5.017  -3.738  0.00  0.00     0.175 A 
ATOM      5  C   UNL d   1      -3.929   6.038  -4.192  0.00  0.00     0.257 A 
ATOM      6  O   UNL d   1      -2.792   5.818  -4.552  0.00  0.00    -0.270 OA
ATOM      7  N   UNL d   1      -4.537   7.240  -4.113  0.00  0.00    -0.214 N 
ENDROOT
BRANCH   4   8
ATOM      8  C   UNL d   1      -4.457   4.279  -2.492  0.00  0.00     0.037 C 
BRANCH   8   9
ATOM      9  C   UNL d   1      -3.265   3.394  -2.864  0.00  0.00     0.115 C 
BRANCH   9  10
ATOM     10  S   UNL d   1      -2.678   2.519  -1.387  0.00  0.00     0.049 S 
ATOM     11  O   UNL d   1      -3.643   1.552  -0.995  0.00  0.00    -0.253 OA
BRANCH  10  12
ATOM     12  C   UNL d   1      -1.323   1.557  -1.973  0.00  0.00     0.031 A 
ATOM     13  C   UNL d   1      -0.045   2.084  -1.963  0.00  0.00     0.021 A 
ATOM     14  C   UNL d   1       1.017   1.329  -2.422  0.00  0.00     0.001 A 
ATOM     15  C   UNL d   1       0.802   0.046  -2.892  0.00  0.00     0.000 A 
ATOM     16  C   UNL d   1      -0.476  -0.481  -2.902  0.00  0.00     0.001 A 
ATOM     17  C   UNL d   1      -1.539   0.276  -2.447  0.00  0.00     0.021 A 
ENDBRANCH  10  12
ENDBRANCH   9  10
ENDBRANCH   8   9
ENDBRANCH   4   8
BRANCH   1  18
ATOM     18  C   UNL d   1      -6.716   8.208  -3.483  0.00  0.00     0.060 A 
ATOM     19  C   UNL d   1      -8.000   8.165  -4.013  0.00  0.00     0.031 A 
ATOM     20  C   UNL d   1      -8.854   9.236  -3.837  0.00  0.00     0.002 A 
ATOM     21  C   UNL d   1      -8.433  10.350  -3.134  0.00  0.00     0.000 A 
ATOM     22  C   UNL d   1      -7.156  10.396  -2.606  0.00  0.00     0.002 A 
ATOM     23  C   UNL d   1      -6.299   9.326  -2.773  0.00  0.00     0.031 A 
ENDBRANCH   1  18
BRANCH   7  24
ATOM     24  C   UNL d   1      -3.925   8.453  -4.447  0.00  0.00     0.060 A 
ATOM     25  C   UNL d   1      -2.671   8.764  -3.935  0.00  0.00     0.031 A 
ATOM     26  C   UNL d   1      -2.070   9.962  -4.267  0.00  0.00     0.002 A 
ATOM     27  C   UNL d   1      -2.714  10.852  -5.107  0.00  0.00     0.000 A 
ATOM     28  C   UNL d   1      -3.962  10.545  -5.618  0.00  0.00     0.002 A 
ATOM     29  C   UNL d   1      -4.566   9.346  -5.294  0.00  0.00     0.031 A 
ENDBRANCH   7  24
TORSDOF 6
