REMARK  9 active torsions:
REMARK  status: ('A' for Active; 'I' for Inactive)
REMARK    1  A    between atoms: C_3  and  O_37 
REMARK    2  A    between atoms: C_4  and  N_44 
REMARK    3  A    between atoms: C_6  and  O_8 
REMARK    4  A    between atoms: O_8  and  C_9 
REMARK    5  A    between atoms: C_11  and  C_33 
REMARK    6  A    between atoms: C_11  and  O_36 
REMARK    7  A    between atoms: C_15  and  O_32 
REMARK    8  A    between atoms: C_18  and  O_19 
REMARK    9  A    between atoms: C_26  and  O_30 
ROOT
ATOM      1  C   UNL d   1       0.075  -4.333  -2.635  0.00  0.00     0.164 C 
ATOM      2  C   UNL d   1      -0.583  -5.609  -3.154  0.00  0.00     0.083 C 
ATOM      3  C   UNL d   1       0.263  -6.150  -4.314  0.00  0.00     0.124 C 
ATOM      4  C   UNL d   1       1.579  -6.673  -3.744  0.00  0.00     0.088 C 
ATOM      5  C   UNL d   1       2.227  -5.636  -2.864  0.00  0.00    -0.009 A 
ATOM      6  C   UNL d   1       1.537  -4.565  -2.353  0.00  0.00     0.014 A 
ATOM      7  C   UNL d   1       2.191  -3.635  -1.534  0.00  0.00     0.090 A 
ATOM      8  C   UNL d   1       3.544  -3.782  -1.234  0.00  0.00     0.066 A 
ATOM      9  C   UNL d   1       4.253  -4.879  -1.762  0.00  0.00     0.066 A 
ATOM     10  C   UNL d   1       3.588  -5.798  -2.573  0.00  0.00     0.088 A 
ATOM     11  C   UNL d   1       5.684  -5.050  -1.457  0.00  0.00     0.197 A 
ATOM     12  O   UNL d   1       6.296  -5.996  -1.912  0.00  0.00    -0.286 OA
ATOM     13  C   UNL d   1       6.373  -4.068  -0.594  0.00  0.00     0.032 A 
ATOM     14  C   UNL d   1       7.724  -4.221  -0.299  0.00  0.00     0.017 A 
ATOM     15  C   UNL d   1       8.367  -3.297   0.509  0.00  0.00     0.004 A 
ATOM     16  C   UNL d   1       7.677  -2.220   1.029  0.00  0.00     0.038 A 
ATOM     17  C   UNL d   1       6.325  -2.049   0.747  0.00  0.00     0.083 A 
ATOM     18  C   UNL d   1       5.664  -2.973  -0.067  0.00  0.00     0.062 A 
ATOM     19  C   UNL d   1       4.232  -2.803  -0.374  0.00  0.00     0.200 A 
ATOM     20  O   UNL d   1       3.619  -1.857   0.082  0.00  0.00    -0.286 OA
ENDROOT
BRANCH   1  21
ATOM     21  O   UNL d   1      -0.577  -3.922  -1.432  0.00  0.00    -0.351 OA
BRANCH  21  22
ATOM     22  C   UNL d   1      -1.746  -3.129  -1.647  0.00  0.00     0.263 C 
ATOM     23  C   UNL d   1      -2.503  -2.967  -0.326  0.00  0.00     0.096 C 
ATOM     24  C   UNL d   1      -3.721  -2.065  -0.550  0.00  0.00     0.219 C 
ATOM     25  C   UNL d   1      -3.252  -0.724  -1.121  0.00  0.00     0.177 C 
ATOM     26  C   UNL d   1      -2.466  -0.973  -2.411  0.00  0.00     0.151 C 
ATOM     27  C   UNL d   1      -1.942   0.358  -2.955  0.00  0.00     0.042 C 
ATOM     28  O   UNL d   1      -1.365  -1.842  -2.137  0.00  0.00    -0.354 OA
BRANCH  24  29
ATOM     29  N   UNL d   1      -4.429  -1.827   0.720  0.00  0.00    -0.072 N 
ATOM     30  H   UNL d   1      -4.729  -2.712   1.125  0.00  0.00     0.274 HD
ATOM     31  H   UNL d   1      -3.817  -1.344   1.376  0.00  0.00     0.274 HD
ATOM     32  H   UNL d   1      -5.255  -1.243   0.542  0.00  0.00     0.274 HD
ENDBRANCH  24  29
BRANCH  25  33
ATOM     33  O   UNL d   1      -4.386   0.098  -1.404  0.00  0.00    -0.391 OA
ATOM     34  H   UNL d   1      -4.162   0.964  -1.771  0.00  0.00     0.210 HD
ENDBRANCH  25  33
ENDBRANCH  21  22
ENDBRANCH   1  21
BRANCH   7  35
ATOM     35  O   UNL d   1       1.502  -2.581  -1.030  0.00  0.00    -0.359 OA
ATOM     36  H   UNL d   1       1.571  -1.776  -1.561  0.00  0.00     0.217 HD
ENDBRANCH   7  35
BRANCH   3  37
ATOM     37  C   UNL d   1      -0.475  -7.271  -5.000  0.00  0.00     0.157 C 
ATOM     38  O   UNL d   1      -1.303  -7.909  -4.395  0.00  0.00    -0.295 OA
ATOM     39  C   UNL d   1      -0.179  -7.596  -6.442  0.00  0.00     0.094 C 
ENDBRANCH   3  37
BRANCH   3  40
ATOM     40  O   UNL d   1       0.525  -5.102  -5.248  0.00  0.00    -0.382 OA
ATOM     41  H   UNL d   1       1.057  -5.376  -6.008  0.00  0.00     0.211 HD
ENDBRANCH   3  40
BRANCH  10  42
ATOM     42  O   UNL d   1       4.264  -6.856  -3.085  0.00  0.00    -0.359 OA
ATOM     43  H   UNL d   1       4.669  -6.685  -3.946  0.00  0.00     0.217 HD
ENDBRANCH  10  42
BRANCH  17  44
ATOM     44  O   UNL d   1       5.652  -0.989   1.260  0.00  0.00    -0.355 OA
ATOM     45  C   UNL d   1       6.394  -0.086   2.083  0.00  0.00     0.210 C 
ENDBRANCH  17  44
TORSDOF 9
