REMARK  1 active torsions:
REMARK  status: ('A' for Active; 'I' for Inactive)
REMARK    1  A    between atoms: C_3  and  C_11 
ROOT
ATOM      1  C   UNL d   1      -2.347   0.846   0.157  0.00  0.00     0.154 C 
ATOM      2  N   UNL d   1      -1.211   1.760   0.018  0.00  0.00    -0.334 N 
ATOM      3  C   UNL d   1      -1.530   3.176  -0.089  0.00  0.00     0.243 C 
ATOM      4  S   UNL d   1      -0.079   4.167   0.377  0.00  0.00     0.170 S 
ATOM      5  O   UNL d   1       0.147   4.014   1.772  0.00  0.00    -0.225 OA
ATOM      6  O   UNL d   1      -0.225   5.472  -0.166  0.00  0.00    -0.225 OA
ATOM      7  C   UNL d   1       1.244   3.303  -0.526  0.00  0.00     0.152 C 
ATOM      8  C   UNL d   1       1.322   1.869  -0.001  0.00  0.00     0.118 C 
ATOM      9  C   UNL d   1      -0.014   1.209   0.009  0.00  0.00     0.221 C 
ATOM     10  O   UNL d   1       0.002  -0.004   0.002  0.00  0.00    -0.273 OA
ENDROOT
BRANCH   3  11
ATOM     11  C   UNL d   1      -2.679   3.506   0.830  0.00  0.00    -0.021 A 
ATOM     12  C   UNL d   1      -3.815   4.110   0.326  0.00  0.00     0.012 A 
ATOM     13  C   UNL d   1      -4.869   4.412   1.168  0.00  0.00     0.024 A 
ATOM     14  C   UNL d   1      -4.786   4.109   2.515  0.00  0.00     0.034 A 
ATOM     15  C   UNL d   1      -3.648   3.504   3.019  0.00  0.00     0.024 A 
ATOM     16 CL   UNL d   1      -6.109   4.488   3.574  0.00  0.00    -0.084 Cl
ATOM     17  C   UNL d   1      -2.597   3.197   2.175  0.00  0.00     0.012 A 
ENDBRANCH   3  11
TORSDOF 1
