REMARK  5 active torsions:
REMARK  status: ('A' for Active; 'I' for Inactive)
REMARK    1  A    between atoms: CA_3  and  C_29 
REMARK    2  A    between atoms: CA_7  and  N_10 
REMARK       I    between atoms: N_10  and  C_11 
REMARK    3  A    between atoms: C_11  and  CA_13 
REMARK    4  A    between atoms: CA_13  and  C_14 
REMARK    5  A    between atoms: CA_13  and  N_20 
REMARK       I    between atoms: N_20  and  C_21 
REMARK       I    between atoms: C_21  and  N_23 
ROOT
ATOM      1  CA  UNL d   1       5.031  -1.486   0.197  0.00  0.00     0.211 C 
ENDROOT
BRANCH   1   2
ATOM      2  C   UNL d   1       5.548  -2.800  -0.329  0.00  0.00     0.245 C 
ATOM      3  N   UNL d   1       6.873  -3.046  -0.340  0.00  0.00    -0.344 N 
ATOM      4  H   UNL d   1       7.494  -2.377  -0.010  0.00  0.00     0.163 HD
ATOM      5  O   UNL d   1       4.773  -3.636  -0.741  0.00  0.00    -0.271 OA
BRANCH   3   6
ATOM      6  CA  UNL d   1       7.377  -4.323  -0.852  0.00  0.00     0.199 A 
ATOM      7  C   UNL d   1       8.749  -4.700  -0.290  0.00  0.00     0.160 A 
ATOM      8  N   UNL d   1       9.178  -4.613  -1.703  0.00  0.00    -0.219 NA
ATOM      9  S   UNL d   1       8.909  -6.496   0.087  0.00  0.00    -0.135 SA
ATOM     10  CA  UNL d   1       9.812  -5.821  -2.236  0.00  0.00     0.186 C 
ATOM     11  C   UNL d   1       7.994  -4.214  -2.224  0.00  0.00     0.227 A 
ATOM     12  C   UNL d   1       9.114  -7.087  -1.653  0.00  0.00     0.029 C 
ATOM     13  C   UNL d   1      10.023  -8.316  -1.727  0.00  0.00     0.029 C 
ATOM     14  C   UNL d   1       7.764  -7.347  -2.324  0.00  0.00     0.029 C 
ATOM     15  O   UNL d   1       7.597  -3.901  -3.327  0.00  0.00    -0.277 OA
BRANCH  10  16
ATOM     16  C   UNL d   1       9.690  -5.829  -3.738  0.00  0.00     0.193 C 
ATOM     17  O   UNL d   1       8.619  -5.622  -4.258  0.00  0.00    -0.647 OA
ATOM     18  OXT UNL d   1      10.770  -6.066  -4.498  0.00  0.00    -0.647 OA
ENDBRANCH  10  16
ENDBRANCH   3   6
ENDBRANCH   1   2
BRANCH   1  19
ATOM     19  C   UNL d   1       5.444  -1.323   1.637  0.00  0.00    -0.026 A 
ATOM     20  C   UNL d   1       6.532  -0.534   1.959  0.00  0.00     0.010 A 
ATOM     21  C   UNL d   1       6.911  -0.385   3.280  0.00  0.00     0.001 A 
ATOM     22  C   UNL d   1       6.202  -1.025   4.279  0.00  0.00     0.000 A 
ATOM     23  C   UNL d   1       5.113  -1.813   3.958  0.00  0.00     0.001 A 
ATOM     24  C   UNL d   1       4.731  -1.959   2.637  0.00  0.00     0.010 A 
ENDBRANCH   1  19
BRANCH   1  25
ATOM     25  N   UNL d   1       3.569  -1.465   0.103  0.00  0.00    -0.325 N 
ATOM     26  C   UNL d   1       2.916  -0.288   0.023  0.00  0.00     0.327 C 
ATOM     27  O   UNL d   1       3.542   0.750  -0.063  0.00  0.00    -0.247 OA
ATOM     28  N   UNL d   1       1.569  -0.263   0.039  0.00  0.00    -0.250 N 
ATOM     29  C   UNL d   1       0.813   0.843   0.061  0.00  0.00     0.326 A 
ATOM     30  C   UNL d   1       0.694  -1.445   0.034  0.00  0.00     0.158 A 
ATOM     31  N   UNL d   1      -0.504   0.601   0.073  0.00  0.00    -0.341 N 
ATOM     32  O   UNL d   1       1.281   1.965   0.071  0.00  0.00    -0.247 OA
ATOM     33  C   UNL d   1      -0.728  -0.852   0.057  0.00  0.00     0.145 A 
ATOM     34  H   UNL d   1      -1.200   1.277   0.090  0.00  0.00     0.164 HD
ATOM     35  H   UNL d   1       3.071  -2.297   0.099  0.00  0.00     0.165 HD
ENDBRANCH   1  25
TORSDOF 5
