REMARK  6 active torsions:
REMARK  status: ('A' for Active; 'I' for Inactive)
REMARK    1  A    between atoms: C_2  and  C_3 
REMARK    2  A    between atoms: C_2  and  C_6 
REMARK    3  A    between atoms: C_3  and  N_18 
REMARK    4  A    between atoms: C_6  and  C_8 
REMARK    5  A    between atoms: C_6  and  O_16 
REMARK    6  A    between atoms: C_8  and  C_9 
ROOT
ATOM      1  C   UNL d   1       1.231   3.978   1.517  0.00  0.00     0.063 C 
ATOM      2  C   UNL d   1       0.120   3.314   2.332  0.00  0.00     0.046 C 
ENDROOT
BRANCH   1   3
ATOM      3  C   UNL d   1       0.998   5.489   1.472  0.00  0.00     0.042 C 
ATOM      4  C   UNL d   1      -0.356   5.777   0.818  0.00  0.00     0.015 C 
BRANCH   3   5
ATOM      5  C   UNL d   1       1.006   6.049   2.895  0.00  0.00     0.241 C 
BRANCH   5   6
ATOM      6  N   UNL d   1       2.357   5.867   3.468  0.00  0.00    -0.078 N 
ATOM      7  C   UNL d   1       3.277   6.888   2.926  0.00  0.00     0.269 C 
ATOM      8  C   UNL d   1       2.299   5.970   4.941  0.00  0.00     0.269 C 
ATOM      9  H   UNL d   1       2.704   4.935   3.212  0.00  0.00     0.278 HD
ENDBRANCH   5   6
ENDBRANCH   3   5
ENDBRANCH   1   3
BRANCH   1  10
ATOM     10  C   UNL d   1       1.223   3.418   0.093  0.00  0.00     0.076 C 
BRANCH  10  11
ATOM     11  C   UNL d   1       1.330   1.915   0.143  0.00  0.00    -0.055 A 
ATOM     12  C   UNL d   1       2.572   1.310   0.126  0.00  0.00     0.009 A 
ATOM     13  C   UNL d   1       2.671  -0.068   0.172  0.00  0.00     0.024 A 
ATOM     14  C   UNL d   1       1.526  -0.841   0.235  0.00  0.00     0.034 A 
ATOM     15  C   UNL d   1       0.282  -0.235   0.253  0.00  0.00     0.024 A 
ATOM     16 CL   UNL d   1       1.649  -2.572   0.293  0.00  0.00    -0.084 Cl
ATOM     17  C   UNL d   1       0.185   1.143   0.207  0.00  0.00     0.009 A 
ENDBRANCH  10  11
ENDBRANCH   1  10
BRANCH   1  18
ATOM     18  O   UNL d   1       2.495   3.709   2.127  0.00  0.00    -0.390 OA
ATOM     19  H   UNL d   1       3.247   4.100   1.662  0.00  0.00     0.210 HD
ENDBRANCH   1  18
TORSDOF 6
