REMARK  5 active torsions:
REMARK  status: ('A' for Active; 'I' for Inactive)
REMARK    1  A    between atoms: C_2  and  O_3 
REMARK    2  A    between atoms: O_3  and  C_4 
REMARK    3  A    between atoms: C_13  and  C_14 
REMARK       I    between atoms: C_14  and  N_16 
REMARK    4  A    between atoms: N_16  and  CA_17 
REMARK    5  A    between atoms: CA_22  and  C_27 
ROOT
ATOM      1  C   UNL d   1       4.361   2.027  -1.037  0.00  0.00     0.256 C 
ATOM      2  O   UNL d   1       5.025   1.488  -1.903  0.00  0.00    -0.268 OA
ATOM      3  N   UNL d   1       4.735   1.932   0.255  0.00  0.00    -0.342 N 
ATOM      4  H   UNL d   1       4.207   2.361   0.946  0.00  0.00     0.163 HD
ENDROOT
BRANCH   1   5
ATOM      5  C   UNL d   1       3.152   2.780  -1.398  0.00  0.00     0.076 A 
ATOM      6  C   UNL d   1       1.909   2.148  -1.457  0.00  0.00     0.085 A 
ATOM      7  C   UNL d   1       0.764   2.871  -1.795  0.00  0.00     0.039 A 
ATOM      8  C   UNL d   1       0.815   4.197  -2.083  0.00  0.00     0.015 A 
ATOM      9  C   UNL d   1       2.036   4.896  -2.049  0.00  0.00    -0.025 A 
ATOM     10  C   UNL d   1       3.225   4.207  -1.710  0.00  0.00    -0.007 A 
ATOM     11  C   UNL d   1       2.099   6.268  -2.344  0.00  0.00     0.012 A 
ATOM     12  C   UNL d   1       4.441   4.900  -1.675  0.00  0.00     0.013 A 
ATOM     13  C   UNL d   1       4.466   6.232  -1.967  0.00  0.00     0.001 A 
ATOM     14  C   UNL d   1       3.297   6.912  -2.300  0.00  0.00     0.001 A 
BRANCH   6  15
ATOM     15  O   UNL d   1       1.812   0.825  -1.177  0.00  0.00    -0.350 OA
BRANCH  15  16
ATOM     16  C   UNL d   1       0.510   0.240  -1.249  0.00  0.00     0.171 C 
ATOM     17  C   UNL d   1       0.599  -1.248  -0.904  0.00  0.00     0.034 C 
ENDBRANCH  15  16
ENDBRANCH   6  15
ENDBRANCH   1   5
BRANCH   3  18
ATOM     18  CA  UNL d   1       5.941   1.182   0.615  0.00  0.00     0.199 A 
ATOM     19  C   UNL d   1       7.097   2.059   1.046  0.00  0.00     0.227 A 
ATOM     20  N   UNL d   1       7.083   1.540   2.303  0.00  0.00    -0.219 NA
ATOM     21  O   UNL d   1       7.773   2.898   0.488  0.00  0.00    -0.277 OA
ATOM     22  C   UNL d   1       5.926   0.646   2.054  0.00  0.00     0.160 A 
ATOM     23  CA  UNL d   1       8.293   0.848   2.794  0.00  0.00     0.186 C 
ATOM     24  S   UNL d   1       6.643  -1.045   2.192  0.00  0.00    -0.135 SA
ATOM     25  C   UNL d   1       8.425  -0.556   2.130  0.00  0.00     0.029 C 
ATOM     26  C   UNL d   1       9.297  -1.495   2.966  0.00  0.00     0.029 C 
ATOM     27  C   UNL d   1       8.932  -0.454   0.691  0.00  0.00     0.029 C 
BRANCH  23  28
ATOM     28  C   UNL d   1       9.508   1.675   2.460  0.00  0.00     0.193 C 
ATOM     29  O   UNL d   1       9.376   2.802   2.045  0.00  0.00    -0.647 OA
ATOM     30  OXT UNL d   1      10.736   1.159   2.624  0.00  0.00    -0.647 OA
ENDBRANCH  23  28
ENDBRANCH   3  18
TORSDOF 5
