REMARK  5 active torsions:
REMARK  status: ('A' for Active; 'I' for Inactive)
REMARK    1  A    between atoms: C_2  and  C_3 
REMARK    2  A    between atoms: C_3  and  C_4 
REMARK    3  A    between atoms: C_4  and  C_5 
REMARK    4  A    between atoms: N_8  and  C_18 
REMARK    5  A    between atoms: N_9  and  C_12 
ROOT
ATOM      1  C   UNL d   1      -1.044   1.596   4.064  0.00  0.00     0.174 A 
ATOM      2  C   UNL d   1      -0.752   3.083   4.060  0.00  0.00     0.257 A 
ATOM      3  O   UNL d   1      -1.364   3.942   3.462  0.00  0.00    -0.270 OA
ATOM      4  N   UNL d   1       0.325   3.256   4.854  0.00  0.00    -0.214 N 
ATOM      5  N   UNL d   1       0.774   2.049   5.383  0.00  0.00    -0.214 N 
ATOM      6  C   UNL d   1       0.022   1.013   4.968  0.00  0.00     0.257 A 
ATOM      7  O   UNL d   1       0.168  -0.155   5.260  0.00  0.00    -0.270 OA
ENDROOT
BRANCH   4   8
ATOM      8  C   UNL d   1       0.917   4.497   5.114  0.00  0.00     0.060 A 
ATOM      9  C   UNL d   1       1.228   5.353   4.066  0.00  0.00     0.031 A 
ATOM     10  C   UNL d   1       1.812   6.577   4.326  0.00  0.00     0.002 A 
ATOM     11  C   UNL d   1       2.087   6.951   5.629  0.00  0.00     0.000 A 
ATOM     12  C   UNL d   1       1.778   6.101   6.675  0.00  0.00     0.002 A 
ATOM     13  C   UNL d   1       1.189   4.878   6.422  0.00  0.00     0.031 A 
ENDBRANCH   4   8
BRANCH   5  14
ATOM     14  C   UNL d   1       1.873   1.929   6.242  0.00  0.00     0.060 A 
ATOM     15  C   UNL d   1       1.758   1.203   7.420  0.00  0.00     0.031 A 
ATOM     16  C   UNL d   1       2.844   1.086   8.266  0.00  0.00     0.002 A 
ATOM     17  C   UNL d   1       4.045   1.689   7.939  0.00  0.00     0.000 A 
ATOM     18  C   UNL d   1       4.162   2.413   6.766  0.00  0.00     0.002 A 
ATOM     19  C   UNL d   1       3.081   2.529   5.914  0.00  0.00     0.031 A 
ENDBRANCH   5  14
BRANCH   1  20
ATOM     20  C   UNL d   1      -0.922   1.022   2.651  0.00  0.00     0.024 C 
BRANCH  20  21
ATOM     21  C   UNL d   1      -2.054   1.568   1.779  0.00  0.00     0.001 C 
BRANCH  21  22
ATOM     22  C   UNL d   1      -1.933   0.994   0.366  0.00  0.00    -0.005 C 
ATOM     23  C   UNL d   1      -3.065   1.540  -0.506  0.00  0.00     0.005 C 
ENDBRANCH  21  22
ENDBRANCH  20  21
ENDBRANCH   1  20
TORSDOF 5
