REMARK  7 active torsions:
REMARK  status: ('A' for Active; 'I' for Inactive)
REMARK    1  A    between atoms: C_2  and  C_3 
REMARK    2  A    between atoms: C_9  and  O_32 
REMARK    3  A    between atoms: C_10  and  O_30 
REMARK    4  A    between atoms: C_15  and  C_16 
REMARK    5  A    between atoms: C_16  and  C_17 
REMARK    6  A    between atoms: C_20  and  O_28 
REMARK    7  A    between atoms: C_21  and  O_26 
ROOT
ATOM      1  C   UNL d   1       5.796   3.703   1.220  0.00  0.00     0.015 C 
ATOM      2  C   UNL d   1       4.761   4.318   0.274  0.00  0.00     0.240 C 
ATOM      3  C   UNL d   1       2.437   4.198  -0.412  0.00  0.00     0.240 C 
ATOM      4  C   UNL d   1       1.097   3.603   0.021  0.00  0.00     0.067 C 
ATOM      5  C   UNL d   1       1.170   2.097   0.002  0.00  0.00    -0.045 A 
ATOM      6  C   UNL d   1      -0.017   1.379   0.010  0.00  0.00     0.047 A 
ATOM      7  C   UNL d   1       0.002  -0.004   0.002  0.00  0.00     0.102 A 
ATOM      8  C   UNL d   1       1.221  -0.676  -0.013  0.00  0.00     0.102 A 
ATOM      9  C   UNL d   1       2.401   0.044  -0.022  0.00  0.00     0.049 A 
ATOM     10  C   UNL d   1       2.378   1.432  -0.017  0.00  0.00    -0.018 A 
ATOM     11  C   UNL d   1       3.689   2.171  -0.039  0.00  0.00     0.222 C 
ATOM     12  C   UNL d   1       4.686   1.488   0.900  0.00  0.00     0.043 C 
ATOM     13  C   UNL d   1       6.021   2.236   0.842  0.00  0.00    -0.004 C 
ATOM     14  N   UNL d   1       3.495   3.562   0.401  0.00  0.00    -0.062 N 
ATOM     15  H   UNL d   1       3.204   3.564   1.386  0.00  0.00     0.280 HD
ENDROOT
BRANCH  13  16
ATOM     16  C   UNL d   1       7.006   1.601   1.826  0.00  0.00     0.043 C 
BRANCH  16  17
ATOM     17  C   UNL d   1       7.327   0.174   1.376  0.00  0.00     0.219 C 
ATOM     18  C   UNL d   1       8.198  -0.489   2.411  0.00  0.00    -0.019 A 
ATOM     19  C   UNL d   1       9.279  -1.269   2.059  0.00  0.00    -0.045 A 
ATOM     20  C   UNL d   1       7.890  -0.299   3.751  0.00  0.00     0.049 A 
ATOM     21  C   UNL d   1      10.053  -1.866   3.045  0.00  0.00     0.047 A 
ATOM     22  C   UNL d   1       9.654  -1.497   0.617  0.00  0.00     0.066 C 
ATOM     23  C   UNL d   1       9.748  -1.681   4.381  0.00  0.00     0.102 A 
ATOM     24  C   UNL d   1       8.659  -0.891   4.737  0.00  0.00     0.102 A 
ATOM     25  C   UNL d   1       8.482  -1.126  -0.292  0.00  0.00     0.237 C 
ATOM     26  N   UNL d   1       8.011   0.222   0.077  0.00  0.00    -0.067 N 
ATOM     27  H   UNL d   1       8.815   0.858   0.139  0.00  0.00     0.278 HD
ATOM     28  H   UNL d   1       7.359   0.562  -0.639  0.00  0.00     0.278 HD
BRANCH  23  29
ATOM     29  O   UNL d   1      10.509  -2.269   5.343  0.00  0.00    -0.353 OA
ATOM     30  C   UNL d   1      11.610  -3.066   4.902  0.00  0.00     0.210 C 
ENDBRANCH  23  29
BRANCH  24  31
ATOM     31  O   UNL d   1       8.351  -0.701   6.048  0.00  0.00    -0.353 OA
ATOM     32  C   UNL d   1       7.220   0.122   6.337  0.00  0.00     0.210 C 
ENDBRANCH  24  31
ENDBRANCH  16  17
ENDBRANCH  13  16
BRANCH   1  33
ATOM     33  C   UNL d   1       7.115   4.469   1.100  0.00  0.00     0.002 C 
ATOM     34  C   UNL d   1       6.918   5.903   1.594  0.00  0.00     0.005 C 
ENDBRANCH   1  33
BRANCH   8  35
ATOM     35  O   UNL d   1       1.251  -2.036  -0.018  0.00  0.00    -0.353 OA
ATOM     36  C   UNL d   1       2.538  -2.657  -0.033  0.00  0.00     0.210 C 
ENDBRANCH   8  35
BRANCH   7  37
ATOM     37  O   UNL d   1      -1.164  -0.703   0.009  0.00  0.00    -0.353 OA
ATOM     38  C   UNL d   1      -2.375   0.055   0.025  0.00  0.00     0.210 C 
ENDBRANCH   7  37
TORSDOF 7
