REMARK  5 active torsions:
REMARK  status: ('A' for Active; 'I' for Inactive)
REMARK    1  A    between atoms: C_2  and  C_3 
REMARK    2  A    between atoms: C_3  and  O_4 
REMARK    3  A    between atoms: O_4  and  C_5 
REMARK    4  A    between atoms: C_5  and  C_7 
REMARK    5  A    between atoms: C_10  and  O_13 
ROOT
ATOM      1  C   UNL d   1       1.223  -0.684  -0.013  0.00  0.00     0.039 A 
ATOM      2  C   UNL d   1       0.002  -0.004   0.002  0.00  0.00     0.020 A 
ATOM      3  C   UNL d   1      -0.017   1.373   0.010  0.00  0.00     0.037 A 
ATOM      4  C   UNL d   1       1.177   2.086   0.002  0.00  0.00     0.065 A 
ATOM      5  C   UNL d   1       2.393   1.413  -0.013  0.00  0.00     0.037 A 
ATOM      6  C   UNL d   1       2.421   0.037  -0.021  0.00  0.00     0.020 A 
ENDROOT
BRANCH   1   7
ATOM      7  C   UNL d   1       1.248  -2.159  -0.021  0.00  0.00     0.293 C 
ATOM      8  O   UNL d   1       0.206  -2.784  -0.014  0.00  0.00    -0.259 OA
BRANCH   7   9
ATOM      9  O   UNL d   1       2.426  -2.813  -0.036  0.00  0.00    -0.318 OA
BRANCH   9  10
ATOM     10  C   UNL d   1       2.374  -4.264  -0.043  0.00  0.00     0.178 C 
BRANCH  10  11
ATOM     11  C   UNL d   1       3.798  -4.825  -0.059  0.00  0.00     0.022 C 
ATOM     12  C   UNL d   1       3.744  -6.354  -0.067  0.00  0.00     0.007 C 
ENDBRANCH  10  11
ENDBRANCH   9  10
ENDBRANCH   7   9
ENDBRANCH   1   7
BRANCH   4  13
ATOM     13  O   UNL d   1       1.154   3.443   0.010  0.00  0.00    -0.361 OA
ATOM     14  H   UNL d   1       1.156   3.831   0.895  0.00  0.00     0.217 HD
ENDBRANCH   4  13
TORSDOF 5
