REMARK  2 active torsions:
REMARK  status: ('A' for Active; 'I' for Inactive)
REMARK    1  A    between atoms: C_2  and  O_4 
REMARK    2  A    between atoms: O_4  and  C_5 
ROOT
ATOM      1  C   UNL d   1      -0.152   3.239   3.627  0.00  0.00     0.136 C 
ATOM      2  C   UNL d   1       0.071   2.115   4.639  0.00  0.00     0.034 C 
ATOM      3  C   UNL d   1      -0.895   2.253   5.814  0.00  0.00     0.016 C 
ATOM      4  C   UNL d   1      -0.702   3.595   6.523  0.00  0.00    -0.017 C 
ATOM      5  C   UNL d   1      -1.685   3.747   7.663  0.00  0.00     0.003 C 
ATOM      6  C   UNL d   1      -2.965   2.952   7.456  0.00  0.00     0.007 C 
ATOM      7  C   UNL d   1      -3.834   2.990   8.725  0.00  0.00     0.018 C 
ATOM      8  C   UNL d   1      -4.168   4.426   9.046  0.00  0.00     0.021 C 
ATOM      9  C   UNL d   1      -2.881   5.260   9.184  0.00  0.00     0.006 C 
ATOM     10  C   UNL d   1      -1.976   5.215   7.992  0.00  0.00    -0.001 C 
ATOM     11  C   UNL d   1      -2.487   5.945   6.762  0.00  0.00     0.033 C 
ATOM     12  C   UNL d   1      -1.522   5.750   5.622  0.00  0.00    -0.023 C 
ATOM     13  C   UNL d   1      -0.762   4.703   5.514  0.00  0.00    -0.072 C 
ATOM     14  C   UNL d   1       0.132   4.591   4.289  0.00  0.00     0.067 C 
ATOM     15  C   UNL d   1      -3.447   6.609   9.642  0.00  0.00     0.013 C 
ATOM     16  C   UNL d   1      -4.538   6.164  10.661  0.00  0.00     0.079 C 
ATOM     17  C   UNL d   1      -4.788   4.678  10.410  0.00  0.00     0.135 C 
ATOM     18  O   UNL d   1      -5.342   3.880  11.112  0.00  0.00    -0.297 OA
ATOM     19  C   UNL d   1      -5.155   4.982   8.023  0.00  0.00     0.024 C 
ATOM     20  C   UNL d   1       0.705   3.601   7.142  0.00  0.00     0.020 C 
ENDROOT
BRANCH   1  21
ATOM     21  O   UNL d   1       0.741   3.058   2.496  0.00  0.00    -0.316 OA
BRANCH  21  22
ATOM     22  C   UNL d   1       0.311   3.502   1.304  0.00  0.00     0.255 C 
ATOM     23  C   UNL d   1       1.183   3.348   0.084  0.00  0.00     0.126 C 
ATOM     24  O   UNL d   1      -0.774   4.024   1.209  0.00  0.00    -0.266 OA
ENDBRANCH  21  22
ENDBRANCH   1  21
TORSDOF 2
