REMARK  2 active torsions:
REMARK  status: ('A' for Active; 'I' for Inactive)
REMARK    1  A    between atoms: C_2  and  C_3 
REMARK    2  A    between atoms: C_12  and  O_15 
ROOT
ATOM      1  C   UNL d   1      -0.926  -2.877   0.926  0.00  0.00     0.009 C 
ATOM      2  C   UNL d   1      -1.544  -1.994  -0.164  0.00  0.00     0.047 C 
ATOM      3  C   UNL d   1      -1.403  -0.526   0.210  0.00  0.00    -0.083 C 
ATOM      4  C   UNL d   1      -2.432   0.284   0.244  0.00  0.00     0.015 C 
ATOM      5  C   UNL d   1      -0.007  -0.037   0.528  0.00  0.00     0.026 C 
ATOM      6  C   UNL d   1       0.542  -0.915   1.654  0.00  0.00    -0.000 C 
ATOM      7  C   UNL d   1       0.477  -2.378   1.310  0.00  0.00     0.003 C 
ATOM      8  C   UNL d   1       1.341  -2.759   0.095  0.00  0.00     0.010 C 
ATOM      9  C   UNL d   1       0.804  -4.155  -0.299  0.00  0.00     0.052 C 
ATOM     10  C   UNL d   1      -0.630  -4.248   0.258  0.00  0.00     0.128 C 
ATOM     11  C   UNL d   1      -1.583  -4.493  -0.838  0.00  0.00    -0.078 C 
ATOM     12  C   UNL d   1      -2.342  -4.689  -1.711  0.00  0.00     0.015 C 
ATOM     13  C   UNL d   1       1.978  -0.497   1.974  0.00  0.00     0.010 C 
ATOM     14  C   UNL d   1       1.978   0.937   2.516  0.00  0.00     0.034 C 
ATOM     15  C   UNL d   1       1.278   1.834   1.509  0.00  0.00    -0.079 C 
ATOM     16  C   UNL d   1       1.885   2.920   1.128  0.00  0.00    -0.024 C 
ATOM     17  C   UNL d   1       1.303   3.883   0.133  0.00  0.00     0.027 C 
ATOM     18  C   UNL d   1      -0.224   3.768   0.162  0.00  0.00     0.004 C 
ATOM     19  C   UNL d   1      -0.603   2.309  -0.096  0.00  0.00     0.010 C 
ATOM     20  C   UNL d   1      -0.075   1.415   1.012  0.00  0.00     0.023 C 
ENDROOT
BRANCH  10  21
ATOM     21  O   UNL d   1      -0.714  -5.295   1.226  0.00  0.00    -0.377 OA
ATOM     22  H   UNL d   1      -0.513  -6.173   0.875  0.00  0.00     0.211 HD
ENDBRANCH  10  21
BRANCH   1  23
ATOM     23  C   UNL d   1      -1.838  -3.017   2.147  0.00  0.00     0.010 C 
ATOM     24  C   UNL d   1      -3.214  -3.515   1.701  0.00  0.00     0.006 C 
ENDBRANCH   1  23
TORSDOF 2
