REMARK  8 active torsions:
REMARK  status: ('A' for Active; 'I' for Inactive)
REMARK    1  A    between atoms: C_2  and  O_32 
REMARK    2  A    between atoms: C_7  and  O_31 
REMARK    3  A    between atoms: C_12  and  O_30 
REMARK    4  A    between atoms: C_13  and  O_29 
REMARK    5  A    between atoms: C_15  and  O_17 
REMARK    6  A    between atoms: C_18  and  N_41 
REMARK    7  A    between atoms: C_19  and  O_26 
REMARK    8  A    between atoms: C_20  and  C_23 
REMARK       I    between atoms: C_23  and  N_25 
ROOT
ATOM      1  C   UNL d   1       1.847  -0.509   2.841  0.00  0.00     0.052 C 
ATOM      2  C   UNL d   1       2.372  -0.191   1.440  0.00  0.00     0.092 C 
ATOM      3  C   UNL d   1       2.288   1.293   1.202  0.00  0.00    -0.007 A 
ATOM      4  C   UNL d   1       3.386   2.097   1.422  0.00  0.00     0.011 A 
ATOM      5  C   UNL d   1       3.307   3.462   1.202  0.00  0.00     0.003 A 
ATOM      6  C   UNL d   1       2.130   4.034   0.760  0.00  0.00     0.037 A 
ATOM      7  C   UNL d   1       1.014   3.240   0.533  0.00  0.00     0.080 A 
ATOM      8  C   UNL d   1       1.092   1.861   0.756  0.00  0.00     0.057 A 
ATOM      9  C   UNL d   1      -0.082   0.994   0.523  0.00  0.00     0.195 C 
ATOM     10  O   UNL d   1      -1.200   1.470   0.440  0.00  0.00    -0.287 OA
ATOM     11  C   UNL d   1       0.125  -0.411   0.393  0.00  0.00     0.035 C 
ATOM     12  C   UNL d   1      -0.945  -1.207   0.257  0.00  0.00     0.097 C 
ATOM     13  C   UNL d   1      -0.858  -2.699   0.205  0.00  0.00     0.180 C 
ATOM     14  C   UNL d   1       0.556  -3.125  -0.212  0.00  0.00     0.102 C 
ATOM     15  C   UNL d   1       1.558  -2.432   0.713  0.00  0.00     0.140 C 
ATOM     16  C   UNL d   1       1.533  -0.934   0.404  0.00  0.00     0.093 C 
ATOM     17  C   UNL d   1       0.665  -4.643  -0.104  0.00  0.00     0.254 C 
ATOM     18  C   UNL d   1      -0.428  -5.300  -0.901  0.00  0.00     0.094 C 
ATOM     19  C   UNL d   1      -1.591  -4.651  -1.243  0.00  0.00     0.112 C 
ATOM     20  C   UNL d   1      -1.811  -3.259  -0.828  0.00  0.00     0.208 C 
ATOM     21  O   UNL d   1      -2.713  -2.591  -1.290  0.00  0.00    -0.288 OA
ENDROOT
BRANCH  19  22
ATOM     22  C   UNL d   1      -2.619  -5.354  -2.027  0.00  0.00     0.255 C 
ATOM     23  O   UNL d   1      -2.702  -5.169  -3.226  0.00  0.00    -0.268 OA
ATOM     24  N   UNL d   1      -3.469  -6.203  -1.415  0.00  0.00    -0.366 N 
ATOM     25  H   UNL d   1      -3.453  -6.294  -0.450  0.00  0.00     0.159 HD
ATOM     26  H   UNL d   1      -4.097  -6.722  -1.941  0.00  0.00     0.159 HD
ENDBRANCH  19  22
BRANCH  18  27
ATOM     27  O   UNL d   1      -0.262  -6.570  -1.296  0.00  0.00    -0.362 OA
ATOM     28  H   UNL d   1      -1.065  -6.867  -1.812  0.00  0.00     0.217 HD
ENDBRANCH  18  27
BRANCH  17  29
ATOM     29  N   UNL d   1       1.991  -5.058  -0.609  0.00  0.00    -0.068 N 
ATOM     30  C   UNL d   1       2.258  -6.462  -0.230  0.00  0.00     0.270 C 
ATOM     31  C   UNL d   1       2.040  -4.913  -2.079  0.00  0.00     0.270 C 
ATOM     32  H   UNL d   1       2.710  -4.457  -0.190  0.00  0.00     0.279 HD
ENDBRANCH  17  29
BRANCH  13  33
ATOM     33  O   UNL d   1      -1.164  -3.254   1.485  0.00  0.00    -0.374 OA
ATOM     34  H   UNL d   1      -2.045  -3.026   1.812  0.00  0.00     0.211 HD
ENDBRANCH  13  33
BRANCH  12  35
ATOM     35  O   UNL d   1      -2.165  -0.635   0.205  0.00  0.00    -0.361 OA
ATOM     36  H   UNL d   1      -2.862  -1.345   0.103  0.00  0.00     0.217 HD
ENDBRANCH  12  35
BRANCH  15  37
ATOM     37  O   UNL d   1       1.187  -2.649   2.076  0.00  0.00    -0.394 OA
ATOM     38  H   UNL d   1       1.266  -3.569   2.363  0.00  0.00     0.210 HD
ENDBRANCH  15  37
BRANCH   2  39
ATOM     39  O   UNL d   1       3.734  -0.611   1.337  0.00  0.00    -0.385 OA
ATOM     40  H   UNL d   1       4.328  -0.179   1.966  0.00  0.00     0.211 HD
ENDBRANCH   2  39
BRANCH   7  41
ATOM     41  O   UNL d   1      -0.144   3.798   0.099  0.00  0.00    -0.360 OA
ATOM     42  H   UNL d   1      -0.736   4.080   0.809  0.00  0.00     0.217 HD
ENDBRANCH   7  41
TORSDOF 8
