REMARK  6 active torsions:
REMARK  status: ('A' for Active; 'I' for Inactive)
REMARK    1  A    between atoms: O_2  and  C_3 
REMARK    2  A    between atoms: CA_4  and  C_22 
REMARK    3  A    between atoms: CA_7  and  N_10 
REMARK       I    between atoms: N_10  and  C_11 
REMARK    4  A    between atoms: C_11  and  CA_13 
REMARK    5  A    between atoms: CA_13  and  C_14 
REMARK    6  A    between atoms: CA_13  and  N_27 
ROOT
ATOM      1  N   UNL d   1       0.454  -4.286  -2.010  0.00  0.00    -0.343 N 
ATOM      2  C   UNL d   1       0.684  -5.461  -2.629  0.00  0.00     0.253 C 
ATOM      3  O   UNL d   1       1.404  -6.288  -2.112  0.00  0.00    -0.271 OA
ATOM      4  H   UNL d   1      -0.122  -3.624  -2.423  0.00  0.00     0.163 HD
ENDROOT
BRANCH   1   5
ATOM      5  CA  UNL d   1       1.074  -4.009  -0.712  0.00  0.00     0.210 C 
ATOM      6  C   UNL d   1       0.324  -3.000   0.138  0.00  0.00     0.187 C 
ATOM      7  N   UNL d   1       1.338  -1.972  -0.222  0.00  0.00    -0.291 N 
ATOM      8  S   UNL d   1      -1.257  -2.409  -0.555  0.00  0.00    -0.134 SA
ATOM      9  CA  UNL d   1       1.211  -0.573  -0.123  0.00  0.00     0.146 C 
ATOM     10  C   UNL d   1       2.116  -2.915  -0.739  0.00  0.00     0.251 C 
ATOM     11  C   UNL d   1      -0.002  -0.017  -0.017  0.00  0.00     0.089 C 
ATOM     12  C   UNL d   1      -1.322  -0.707   0.086  0.00  0.00     0.143 C 
ATOM     13  O   UNL d   1       3.271  -2.903  -1.109  0.00  0.00    -0.271 OA
BRANCH   9  14
ATOM     14  C   UNL d   1       2.405   0.272  -0.133  0.00  0.00     0.229 C 
ATOM     15  O   UNL d   1       3.499  -0.223  -0.329  0.00  0.00    -0.643 OA
ATOM     16  OXT UNL d   1       2.294   1.601   0.075  0.00  0.00    -0.643 OA
ENDBRANCH   9  14
BRANCH  11  17
ATOM     17  O   UNL d   1      -0.036   1.333  -0.006  0.00  0.00    -0.357 OA
ATOM     18  C   UNL d   1      -0.486   1.961   1.196  0.00  0.00     0.209 C 
ENDBRANCH  11  17
ENDBRANCH   1   5
BRANCH   2  19
ATOM     19  CA  UNL d   1       0.046  -5.745  -3.965  0.00  0.00     0.303 C 
BRANCH  19  20
ATOM     20  C   UNL d   1       0.831  -5.061  -5.053  0.00  0.00    -0.041 C 
ATOM     21  C   UNL d   1       2.242  -5.501  -5.305  0.00  0.00     0.063 C 
ATOM     22  C   UNL d   1       3.012  -4.457  -6.053  0.00  0.00    -0.026 C 
ATOM     23  C   UNL d   1       2.439  -3.507  -6.728  0.00  0.00    -0.027 C 
ATOM     24  C   UNL d   1       0.950  -3.366  -6.830  0.00  0.00     0.054 C 
ATOM     25  C   UNL d   1       0.259  -4.111  -5.728  0.00  0.00    -0.017 C 
ENDBRANCH  19  20
BRANCH  19  26
ATOM     26  N   UNL d   1       0.028  -7.195  -4.227  0.00  0.00    -0.063 N 
ATOM     27  H1  UNL d   1       0.976  -7.566  -4.208  0.00  0.00     0.275 HD
ATOM     28  H2  UNL d   1      -0.536  -7.671  -3.524  0.00  0.00     0.275 HD
ATOM     29  H3  UNL d   1      -0.380  -7.365  -5.154  0.00  0.00     0.275 HD
ENDBRANCH  19  26
ENDBRANCH   2  19
TORSDOF 6
