REMARK  4 active torsions:
REMARK  status: ('A' for Active; 'I' for Inactive)
REMARK    1  A    between atoms: C_2  and  C_3 
REMARK    2  A    between atoms: C_2  and  N_14 
REMARK    3  A    between atoms: C_3  and  C_4 
REMARK    4  A    between atoms: C_11  and  N_14 
ROOT
ATOM      1  C   UNL d   1       1.977   0.068  -1.505  0.00  0.00     0.327 C 
ATOM      2  C   UNL d   1       2.243   0.040  -2.952  0.00  0.00    -0.090 C 
ATOM      3  C   UNL d   1       2.454   0.018  -4.107  0.00  0.00     0.013 C 
ENDROOT
BRANCH   1   4
ATOM      4  N   UNL d   1       0.583  -0.362  -1.268  0.00  0.00    -0.061 N 
ATOM      5  C   UNL d   1       0.430  -1.792  -1.610  0.00  0.00     0.271 C 
ATOM      6  H   UNL d   1      -0.043   0.192  -1.863  0.00  0.00     0.281 HD
BRANCH   4   7
ATOM      7  C   UNL d   1       0.220  -0.141   0.148  0.00  0.00     0.189 C 
ATOM      8  C   UNL d   1       0.234   1.362   0.433  0.00  0.00     0.040 C 
BRANCH   7   9
ATOM      9  C   UNL d   1      -1.185  -0.694   0.395  0.00  0.00     0.071 C 
BRANCH   9  10
ATOM     10  C   UNL d   1      -1.544  -0.522   1.849  0.00  0.00    -0.056 A 
ATOM     11  C   UNL d   1      -2.285   0.572   2.254  0.00  0.00     0.007 A 
ATOM     12  C   UNL d   1      -2.614   0.729   3.587  0.00  0.00     0.001 A 
ATOM     13  C   UNL d   1      -2.202  -0.209   4.516  0.00  0.00     0.000 A 
ATOM     14  C   UNL d   1      -1.461  -1.303   4.111  0.00  0.00     0.001 A 
ATOM     15  C   UNL d   1      -1.136  -1.463   2.777  0.00  0.00     0.007 A 
ENDBRANCH   9  10
ENDBRANCH   7   9
ENDBRANCH   4   7
ENDBRANCH   1   4
TORSDOF 4
