REMARK  1 active torsions:
REMARK  status: ('A' for Active; 'I' for Inactive)
REMARK    1  A    between atoms: C_10  and  O_12 
ROOT
ATOM      1  C   UNL d   1       0.383  -0.466   1.418  0.00  0.00     0.018 C 
ATOM      2  C   UNL d   1       0.002  -0.004   0.002  0.00  0.00    -0.009 C 
ATOM      3  C   UNL d   1      -1.266  -0.698  -0.432  0.00  0.00     0.013 C 
ATOM      4  C   UNL d   1      -0.909  -1.798  -1.452  0.00  0.00     0.006 C 
ATOM      5  C   UNL d   1       0.279  -2.595  -0.921  0.00  0.00    -0.002 C 
ATOM      6  C   UNL d   1       1.544  -1.766  -0.954  0.00  0.00    -0.005 C 
ATOM      7  C   UNL d   1       1.146  -0.293  -0.992  0.00  0.00     0.001 C 
ATOM      8  C   UNL d   1       2.251   0.661  -0.506  0.00  0.00     0.009 C 
ATOM      9  C   UNL d   1       1.486   1.911  -0.002  0.00  0.00     0.038 C 
ATOM     10  C   UNL d   1      -0.019   1.531   0.011  0.00  0.00     0.062 C 
ATOM     11  C   UNL d   1      -0.702   2.103  -1.227  0.00  0.00     0.046 C 
ATOM     12  C   UNL d   1       2.415  -2.031  -2.177  0.00  0.00     0.010 C 
ATOM     13  C   UNL d   1       2.718  -3.512  -2.344  0.00  0.00     0.035 C 
ATOM     14  C   UNL d   1       1.398  -4.250  -2.464  0.00  0.00    -0.072 C 
ATOM     15  C   UNL d   1       1.243  -5.096  -3.484  0.00  0.00     0.053 C 
ATOM     16  C   UNL d   1      -0.007  -5.851  -3.631  0.00  0.00     0.149 C 
ATOM     17  O   UNL d   1      -0.320  -6.365  -4.684  0.00  0.00    -0.293 OA
ATOM     18  C   UNL d   1      -0.890  -5.956  -2.402  0.00  0.00     0.084 C 
ATOM     19  C   UNL d   1      -1.017  -4.546  -1.819  0.00  0.00     0.017 C 
ATOM     20  C   UNL d   1       0.349  -4.005  -1.432  0.00  0.00     0.019 C 
ENDROOT
BRANCH  10  21
ATOM     21  O   UNL d   1      -0.640   2.010   1.200  0.00  0.00    -0.389 OA
ATOM     22  H   UNL d   1      -0.682   2.974   1.262  0.00  0.00     0.210 HD
ENDBRANCH  10  21
TORSDOF 1
