REMARK  3 active torsions:
REMARK  status: ('A' for Active; 'I' for Inactive)
REMARK    1  A    between atoms: C_2  and  C_14 
REMARK    2  A    between atoms: C_3  and  C_12 
REMARK    3  A    between atoms: C_14  and  N_15 
ROOT
ATOM      1  C   UNL d   1       1.091   3.109  -2.479  0.00  0.00     0.036 C 
ATOM      2  C   UNL d   1       0.884   3.870  -1.168  0.00  0.00     0.106 C 
ATOM      3  C   UNL d   1       1.348   5.350  -1.286  0.00  0.00     0.193 C 
ATOM      4  N   UNL d   1       0.334   6.172  -1.953  0.00  0.00    -0.218 NA
ATOM      5  C   UNL d   1      -1.059   5.735  -1.793  0.00  0.00     0.198 C 
ATOM      6  S   UNL d   1      -0.909   4.173  -0.832  0.00  0.00     0.174 S 
ATOM      7  O   UNL d   1      -1.684   3.159  -1.456  0.00  0.00    -0.225 OA
ATOM      8  O   UNL d   1      -1.090   4.450   0.550  0.00  0.00    -0.225 OA
ATOM      9  C   UNL d   1      -1.292   6.971  -0.942  0.00  0.00     0.132 C 
ATOM     10  C   UNL d   1       0.062   7.386  -1.435  0.00  0.00     0.204 C 
ATOM     11  O   UNL d   1       0.681   8.427  -1.387  0.00  0.00    -0.280 OA
ENDROOT
BRANCH   2  12
ATOM     12  C   UNL d   1       1.564   3.158   0.004  0.00  0.00     0.177 C 
BRANCH  12  13
ATOM     13  N   UNL d   1       1.187   1.742   0.000  0.00  0.00    -0.286 N 
ATOM     14  N   UNL d   1      -0.015   1.282   0.009  0.00  0.00    -0.241 N 
ATOM     15  N   UNL d   1       0.002  -0.004   0.002  0.00  0.00    -0.296 N 
ATOM     16  HN  UNL d   1      -0.860   1.854   0.020  1.00  0.00     0.208 HD
ATOM     17  C   UNL d   1       1.274  -0.420  -0.012  0.00  0.00     0.127 A 
ATOM     18  HN  UNL d   1      -0.820  -0.609   0.007  1.00  0.00     0.187 HD
ATOM     19  C   UNL d   1       2.042   0.694  -0.014  0.00  0.00     0.130 A 
ENDBRANCH  12  13
ENDBRANCH   2  12
BRANCH   3  20
ATOM     20  C   UNL d   1       2.627   5.405  -2.080  0.00  0.00     0.193 C 
ATOM     21  O   UNL d   1       2.600   5.709  -3.249  0.00  0.00    -0.647 OA
ATOM     22  O   UNL d   1       3.797   5.115  -1.489  0.00  0.00    -0.647 OA
ENDBRANCH   3  20
TORSDOF 3
