REMARK  16 active torsions:
REMARK  status: ('A' for Active; 'I' for Inactive)
REMARK    1  A    between atoms: C_2  and  C_3 
REMARK    2  A    between atoms: C_3  and  C_4 
REMARK    3  A    between atoms: C_4  and  C_5 
REMARK    4  A    between atoms: C_5  and  C_7 
REMARK    5  A    between atoms: C_5  and  O_27 
REMARK    6  A    between atoms: C_7  and  C_8 
REMARK    7  A    between atoms: C_9  and  C_10 
REMARK    8  A    between atoms: C_11  and  O_26 
REMARK    9  A    between atoms: C_15  and  C_16 
REMARK   10  A    between atoms: C_16  and  C_17 
REMARK   11  A    between atoms: C_17  and  C_18 
REMARK   12  A    between atoms: C_18  and  C_19 
REMARK   13  A    between atoms: C_19  and  C_20 
REMARK   14  A    between atoms: C_20  and  C_21 
REMARK   15  A    between atoms: C_21  and  C_22 
REMARK   16  A    between atoms: C_22  and  O_24 
ROOT
ATOM      1  C   UNL d   1      -0.013   1.086   0.008  0.00  0.00     0.048 C 
ATOM      2  C   UNL d   1      -0.630   1.629  -1.305  0.00  0.00     0.133 C 
ATOM      3  C   UNL d   1       0.565   1.557  -2.288  0.00  0.00     0.111 C 
ATOM      4  C   UNL d   1       1.769   1.943  -1.447  0.00  0.00     0.134 C 
ATOM      5  O   UNL d   1       2.809   2.401  -1.855  0.00  0.00    -0.297 OA
ATOM      6  C   UNL d   1       1.424   1.647  -0.003  0.00  0.00     0.065 C 
ENDROOT
BRANCH   1   7
ATOM      7  C   UNL d   1      -0.772   1.597   1.205  0.00  0.00    -0.023 C 
ATOM      8  C   UNL d   1      -1.288   0.752   2.063  0.00  0.00    -0.027 C 
BRANCH   8   9
ATOM      9  C   UNL d   1      -2.047   1.263   3.260  0.00  0.00     0.064 C 
BRANCH   9  10
ATOM     10  C   UNL d   1      -3.442   0.634   3.286  0.00  0.00     0.057 C 
ATOM     11  C   UNL d   1      -4.147   0.904   1.956  0.00  0.00     0.046 C 
BRANCH  10  12
ATOM     12  C   UNL d   1      -4.256   1.246   4.428  0.00  0.00     0.038 C 
BRANCH  12  13
ATOM     13  C   UNL d   1      -5.650   0.617   4.454  0.00  0.00     0.002 C 
BRANCH  13  14
ATOM     14  C   UNL d   1      -6.465   1.229   5.596  0.00  0.00    -0.004 C 
ATOM     15  C   UNL d   1      -7.859   0.600   5.622  0.00  0.00     0.005 C 
ENDBRANCH  13  14
ENDBRANCH  12  13
ENDBRANCH  10  12
BRANCH  10  16
ATOM     16  O   UNL d   1      -3.325  -0.776   3.487  0.00  0.00    -0.390 OA
ATOM     17  H   UNL d   1      -2.886  -1.020   4.313  0.00  0.00     0.210 HD
ENDBRANCH  10  16
ENDBRANCH   9  10
ENDBRANCH   8   9
ENDBRANCH   1   7
BRANCH   6  18
ATOM     18  C   UNL d   1       2.395   0.611   0.566  0.00  0.00     0.013 C 
BRANCH  18  19
ATOM     19  C   UNL d   1       3.794   1.223   0.666  0.00  0.00     0.001 C 
BRANCH  19  20
ATOM     20  C   UNL d   1       4.765   0.186   1.235  0.00  0.00     0.000 C 
BRANCH  20  21
ATOM     21  C   UNL d   1       6.163   0.798   1.335  0.00  0.00     0.000 C 
BRANCH  21  22
ATOM     22  C   UNL d   1       7.134  -0.238   1.904  0.00  0.00     0.010 C 
BRANCH  22  23
ATOM     23  C   UNL d   1       8.533   0.374   2.004  0.00  0.00     0.111 C 
BRANCH  23  24
ATOM     24  C   UNL d   1       9.489  -0.647   2.564  0.00  0.00     0.258 C 
ATOM     25  O   UNL d   1       9.093  -1.751   2.853  0.00  0.00    -0.265 OA
BRANCH  24  26
ATOM     26  O   UNL d   1      10.781  -0.330   2.741  0.00  0.00    -0.326 OA
ATOM     27  C   UNL d   1      11.645  -1.363   3.285  0.00  0.00     0.213 C 
ENDBRANCH  24  26
ENDBRANCH  23  24
ENDBRANCH  22  23
ENDBRANCH  21  22
ENDBRANCH  20  21
ENDBRANCH  19  20
ENDBRANCH  18  19
ENDBRANCH   6  18
BRANCH   2  28
ATOM     28  O   UNL d   1      -1.071   2.978  -1.139  0.00  0.00    -0.394 OA
ATOM     29  H   UNL d   1      -1.466   3.364  -1.934  0.00  0.00     0.210 HD
ENDBRANCH   2  28
TORSDOF 16
