REMARK  7 active torsions:
REMARK  status: ('A' for Active; 'I' for Inactive)
REMARK    1  A    between atoms: C_2  and  C_3 
REMARK    2  A    between atoms: C_3  and  C_5 
REMARK    3  A    between atoms: C_5  and  C_6 
REMARK    4  A    between atoms: C_5  and  C_11 
REMARK    5  A    between atoms: C_5  and  C_17 
REMARK    6  A    between atoms: C_6  and  C_7 
REMARK    7  A    between atoms: C_7  and  N_23 
ROOT
ATOM      1  C   UNL d   1       3.922  -0.773  -0.221  0.00  0.00     0.076 C 
ENDROOT
BRANCH   1   2
ATOM      2  C   UNL d   1       4.571  -1.621   0.842  0.00  0.00     0.144 C 
ATOM      3  O   UNL d   1       5.136  -2.644   0.537  0.00  0.00    -0.296 OA
BRANCH   2   4
ATOM      4  C   UNL d   1       4.516  -1.193   2.286  0.00  0.00     0.075 C 
ATOM      5  C   UNL d   1       5.361  -2.146   3.134  0.00  0.00     0.013 C 
ENDBRANCH   2   4
ENDBRANCH   1   2
BRANCH   1   6
ATOM      6  C   UNL d   1       4.705   0.531  -0.382  0.00  0.00     0.060 C 
BRANCH   6   7
ATOM      7  C   UNL d   1       6.191   0.215  -0.565  0.00  0.00     0.185 C 
ATOM      8  C   UNL d   1       6.396  -0.522  -1.890  0.00  0.00     0.040 C 
BRANCH   7   9
ATOM      9  N   UNL d   1       6.949   1.483  -0.598  0.00  0.00    -0.075 N 
ATOM     10  C   UNL d   1       6.826   2.180   0.700  0.00  0.00     0.269 C 
ATOM     11  C   UNL d   1       8.372   1.213  -0.893  0.00  0.00     0.269 C 
ATOM     12  H   UNL d   1       6.564   2.083  -1.337  0.00  0.00     0.279 HD
ENDBRANCH   7   9
ENDBRANCH   6   7
ENDBRANCH   1   6
BRANCH   1  13
ATOM     13  C   UNL d   1       2.504  -0.462   0.182  0.00  0.00    -0.037 A 
ATOM     14  C   UNL d   1       2.088   0.853   0.288  0.00  0.00     0.009 A 
ATOM     15  C   UNL d   1       0.787   1.139   0.657  0.00  0.00     0.001 A 
ATOM     16  C   UNL d   1      -0.098   0.110   0.920  0.00  0.00     0.000 A 
ATOM     17  C   UNL d   1       0.317  -1.204   0.815  0.00  0.00     0.001 A 
ATOM     18  C   UNL d   1       1.618  -1.490   0.445  0.00  0.00     0.009 A 
ENDBRANCH   1  13
BRANCH   1  19
ATOM     19  C   UNL d   1       3.920  -1.522  -1.529  0.00  0.00    -0.037 A 
ATOM     20  C   UNL d   1       3.840  -2.902  -1.535  0.00  0.00     0.009 A 
ATOM     21  C   UNL d   1       3.838  -3.589  -2.735  0.00  0.00     0.001 A 
ATOM     22  C   UNL d   1       3.916  -2.896  -3.928  0.00  0.00     0.000 A 
ATOM     23  C   UNL d   1       3.995  -1.516  -3.922  0.00  0.00     0.001 A 
ATOM     24  C   UNL d   1       3.992  -0.829  -2.722  0.00  0.00     0.009 A 
ENDBRANCH   1  19
TORSDOF 7
