REMARK  8 active torsions:
REMARK  status: ('A' for Active; 'I' for Inactive)
REMARK    1  A    between atoms: C_2  and  N_18 
REMARK    2  A    between atoms: C_4  and  C_5 
REMARK    3  A    between atoms: C_4  and  N_18 
REMARK    4  A    between atoms: C_5  and  C_6 
REMARK    5  A    between atoms: C_5  and  O_15 
REMARK    6  A    between atoms: C_6  and  O_7 
REMARK    7  A    between atoms: O_7  and  C_8 
REMARK    8  A    between atoms: C_11  and  O_14 
ROOT
ATOM      1  C   UNL d   1      -0.013   1.086   0.008  0.00  0.00     0.168 C 
ENDROOT
BRANCH   1   2
ATOM      2  C   UNL d   1       1.423   1.615  -0.003  0.00  0.00     0.266 C 
BRANCH   2   3
ATOM      3  N   UNL d   1       2.164   1.027   1.129  0.00  0.00    -0.069 N 
ATOM      4  H   UNL d   1       1.702   1.288   2.008  0.00  0.00     0.277 HD
ATOM      5  H   UNL d   1       2.168   0.004   1.035  0.00  0.00     0.277 HD
BRANCH   3   6
ATOM      6  C   UNL d   1       3.554   1.520   1.143  0.00  0.00     0.178 C 
ATOM      7  C   UNL d   1       4.102   1.435   2.569  0.00  0.00     0.039 C 
ATOM      8  C   UNL d   1       4.411   0.659   0.214  0.00  0.00     0.039 C 
ENDBRANCH   3   6
ENDBRANCH   2   3
ENDBRANCH   1   2
BRANCH   1   9
ATOM      9  C   UNL d   1      -0.753   1.593  -1.232  0.00  0.00     0.209 C 
BRANCH   9  10
ATOM     10  O   UNL d   1      -2.054   1.005  -1.282  0.00  0.00    -0.349 OA
BRANCH  10  11
ATOM     11  C   UNL d   1      -2.848   1.353  -2.330  0.00  0.00     0.069 A 
ATOM     12  C   UNL d   1      -4.124   0.820  -2.441  0.00  0.00     0.039 A 
ATOM     13  C   UNL d   1      -4.930   1.174  -3.506  0.00  0.00     0.039 A 
ATOM     14  C   UNL d   1      -4.464   2.063  -4.463  0.00  0.00     0.065 A 
ATOM     15  C   UNL d   1      -3.189   2.596  -4.352  0.00  0.00     0.039 A 
ATOM     16  C   UNL d   1      -2.384   2.246  -3.285  0.00  0.00     0.039 A 
BRANCH  14  17
ATOM     17  O   UNL d   1      -5.258   2.411  -5.511  0.00  0.00    -0.361 OA
ATOM     18  H   UNL d   1      -5.811   3.186  -5.345  0.00  0.00     0.217 HD
ENDBRANCH  14  17
ENDBRANCH  10  11
ENDBRANCH   9  10
ENDBRANCH   1   9
BRANCH   1  19
ATOM     19  O   UNL d   1      -0.682   1.547   1.184  0.00  0.00    -0.392 OA
ATOM     20  H   UNL d   1      -0.732   2.510   1.256  0.00  0.00     0.210 HD
ENDBRANCH   1  19
TORSDOF 8
