REMARK  1 active torsions:
REMARK  status: ('A' for Active; 'I' for Inactive)
REMARK    1  A    between atoms: C_18  and  O_20 
ROOT
ATOM      1  C   UNL d   1       0.685   4.511   7.171  0.00  0.00     0.024 C 
ATOM      2  C   UNL d   1       1.846   4.187   6.230  0.00  0.00     0.021 C 
ATOM      3  C   UNL d   1       1.893   5.197   5.111  0.00  0.00     0.018 C 
ATOM      4  C   UNL d   1       0.724   5.031   4.147  0.00  0.00     0.007 C 
ATOM      5  C   UNL d   1       0.380   3.606   3.737  0.00  0.00     0.003 C 
ATOM      6  C   UNL d   1       0.396   2.651   4.928  0.00  0.00    -0.001 C 
ATOM      7  C   UNL d   1       1.723   2.767   5.628  0.00  0.00     0.006 C 
ATOM      8  C   UNL d   1       1.940   1.890   6.868  0.00  0.00     0.013 C 
ATOM      9  C   UNL d   1       3.085   2.638   7.606  0.00  0.00     0.079 C 
ATOM     10  C   UNL d   1       3.096   4.066   7.069  0.00  0.00     0.135 C 
ATOM     11  O   UNL d   1       3.918   4.922   7.266  0.00  0.00    -0.297 OA
ATOM     12  C   UNL d   1       0.079   1.222   4.512  0.00  0.00     0.033 C 
ATOM     13  C   UNL d   1       0.901   0.806   3.333  0.00  0.00    -0.023 C 
ATOM     14  C   UNL d   1       1.348   1.647   2.454  0.00  0.00    -0.072 C 
ATOM     15  C   UNL d   1       1.156   3.135   2.530  0.00  0.00    -0.017 C 
ATOM     16  C   UNL d   1       0.423   3.575   1.251  0.00  0.00     0.016 C 
ATOM     17  C   UNL d   1       1.151   3.083   0.005  0.00  0.00     0.033 C 
ATOM     18  C   UNL d   1       1.287   1.562  -0.002  0.00  0.00     0.122 C 
ATOM     19  C   UNL d   1       2.069   1.099   1.233  0.00  0.00     0.066 C 
ATOM     20  C   UNL d   1       2.542   3.775   2.497  0.00  0.00     0.020 C 
ENDROOT
BRANCH  18  21
ATOM     21  O   UNL d   1      -0.011   0.963   0.007  0.00  0.00    -0.395 OA
ATOM     22  H   UNL d   1       0.002  -0.004   0.002  0.00  0.00     0.210 HD
ENDBRANCH  18  21
TORSDOF 1
