REMARK  4 active torsions:
REMARK  status: ('A' for Active; 'I' for Inactive)
REMARK    1  A    between atoms: C_2  and  C_4 
REMARK    2  A    between atoms: C_2  and  O_6 
REMARK    3  A    between atoms: O_6  and  C_7 
REMARK    4  A    between atoms: C_10  and  C_13 
ROOT
ATOM      1  C   UNL d   1       2.409   0.098   0.128  0.00  0.00     0.070 A 
ATOM      2  C   UNL d   1       1.195  -0.573   0.161  0.00  0.00     0.037 A 
ATOM      3  C   UNL d   1       0.018   0.138   0.293  0.00  0.00     0.010 A 
ATOM      4  C   UNL d   1       0.050   1.517   0.393  0.00  0.00    -0.051 A 
ATOM      5  C   UNL d   1       1.258   2.188   0.361  0.00  0.00     0.010 A 
ATOM      6  C   UNL d   1       2.438   1.481   0.229  0.00  0.00     0.037 A 
ENDROOT
BRANCH   1   7
ATOM      7  O   UNL d   1       3.568  -0.600  -0.002  0.00  0.00    -0.330 OA
BRANCH   7   8
ATOM      8  C   UNL d   1       4.769   0.160  -0.153  0.00  0.00     0.148 C 
ATOM      9  C   UNL d   1       5.956  -0.790  -0.324  0.00  0.00     0.058 C 
ATOM     10  C   UNL d   1       4.653   1.057  -1.387  0.00  0.00     0.058 C 
BRANCH   8  11
ATOM     11  C   UNL d   1       4.981   1.014   1.070  0.00  0.00     0.209 C 
ATOM     12  O   UNL d   1       4.185   0.975   1.979  0.00  0.00    -0.646 OA
ATOM     13  O   UNL d   1       6.053   1.817   1.151  0.00  0.00    -0.646 OA
ENDBRANCH   8  11
ENDBRANCH   7   8
ENDBRANCH   1   7
BRANCH   4  14
ATOM     14  C   UNL d   1      -1.236   2.291   0.532  0.00  0.00     0.060 A 
ATOM     15  C   UNL d   1      -1.561   3.321  -0.552  0.00  0.00     0.121 A 
ATOM     16  C   UNL d   1      -1.131   3.786   0.841  0.00  0.00     0.055 A 
ATOM     17 CL   UNL d   1      -0.376   3.515  -1.897  0.00  0.00    -0.101 Cl
ATOM     18 CL   UNL d   1      -3.293   3.535  -1.004  0.00  0.00    -0.101 Cl
ENDBRANCH   4  14
TORSDOF 4
