REMARK  8 active torsions:
REMARK  status: ('A' for Active; 'I' for Inactive)
REMARK    1  A    between atoms: C_2  and  C_3 
REMARK    2  A    between atoms: C_3  and  C_5 
REMARK    3  A    between atoms: C_5  and  O_7 
REMARK    4  A    between atoms: O_7  and  C_8 
REMARK    5  A    between atoms: C_14  and  C_19 
REMARK    6  A    between atoms: C_19  and  C_20 
REMARK    7  A    between atoms: C_20  and  C_21 
REMARK    8  A    between atoms: C_23  and  O_28 
ROOT
ATOM      1  C   UNL d   1      -0.567   3.264   3.608  0.00  0.00     0.141 C 
ATOM      2  C   UNL d   1       0.627   3.920   4.298  0.00  0.00     0.041 C 
ATOM      3  C   UNL d   1       0.594   3.544   5.785  0.00  0.00     0.007 C 
ATOM      4  C   UNL d   1       0.715   2.045   5.882  0.00  0.00    -0.015 C 
ATOM      5  C   UNL d   1       0.232   1.278   4.942  0.00  0.00    -0.055 C 
ATOM      6  C   UNL d   1      -0.546   1.761   3.754  0.00  0.00     0.052 C 
ATOM      7  C   UNL d   1       0.011   1.072   2.506  0.00  0.00     0.004 C 
ATOM      8  C   UNL d   1      -0.194  -0.437   2.645  0.00  0.00     0.009 C 
ATOM      9  C   UNL d   1       0.297  -0.943   3.967  0.00  0.00    -0.022 C 
ATOM     10  C   UNL d   1       0.491  -0.178   5.027  0.00  0.00     0.004 C 
ATOM     11  C   UNL d   1      -1.686  -0.752   2.513  0.00  0.00     0.014 C 
ATOM     12  C   UNL d   1       1.765   4.206   6.514  0.00  0.00     0.014 C 
ENDROOT
BRANCH   7  13
ATOM     13  C   UNL d   1      -0.729   1.579   1.267  0.00  0.00     0.009 C 
BRANCH  13  14
ATOM     14  C   UNL d   1      -0.120   0.945   0.015  0.00  0.00     0.033 C 
BRANCH  14  15
ATOM     15  C   UNL d   1      -0.860   1.452  -1.225  0.00  0.00     0.134 C 
ATOM     16  O   UNL d   1      -0.633   2.881  -1.376  0.00  0.00    -0.316 OA
ATOM     17  C   UNL d   1      -1.111   3.432  -2.512  0.00  0.00     0.261 C 
ATOM     18  C   UNL d   1      -0.753   2.775  -3.827  0.00  0.00     0.142 C 
ATOM     19  O   UNL d   1      -1.804   4.421  -2.480  0.00  0.00    -0.265 OA
ATOM     20  C   UNL d   1      -1.041   1.273  -3.711  0.00  0.00     0.130 C 
ATOM     21  C   UNL d   1      -0.336   0.725  -2.467  0.00  0.00     0.065 C 
BRANCH  20  22
ATOM     22  O   UNL d   1      -0.551   0.601  -4.873  0.00  0.00    -0.395 OA
ATOM     23  H   UNL d   1      -0.956   0.899  -5.699  0.00  0.00     0.210 HD
ENDBRANCH  20  22
ENDBRANCH  14  15
ENDBRANCH  13  14
ENDBRANCH   7  13
BRANCH   1  24
ATOM     24  O   UNL d   1      -1.791   3.779   4.195  0.00  0.00    -0.315 OA
BRANCH  24  25
ATOM     25  C   UNL d   1      -2.295   4.904   3.664  0.00  0.00     0.263 C 
ATOM     26  O   UNL d   1      -1.733   5.440   2.739  0.00  0.00    -0.265 OA
BRANCH  25  27
ATOM     27  C   UNL d   1      -3.563   5.498   4.221  0.00  0.00     0.081 C 
ATOM     28  C   UNL d   1      -4.702   4.484   4.090  0.00  0.00     0.020 C 
BRANCH  27  29
ATOM     29  C   UNL d   1      -3.918   6.766   3.442  0.00  0.00     0.010 C 
ATOM     30  C   UNL d   1      -5.133   7.437   4.086  0.00  0.00     0.006 C 
ENDBRANCH  27  29
ENDBRANCH  25  27
ENDBRANCH  24  25
ENDBRANCH   1  24
TORSDOF 8
