REMARK  15 active torsions:
REMARK  status: ('A' for Active; 'I' for Inactive)
REMARK    1  A    between atoms: C_2  and  C_3 
REMARK    2  A    between atoms: C_3  and  C_4 
REMARK    3  A    between atoms: C_4  and  C_5 
REMARK    4  A    between atoms: C_5  and  C_6 
REMARK    5  A    between atoms: C_6  and  C_8 
REMARK    6  A    between atoms: C_6  and  O_25 
REMARK    7  A    between atoms: C_9  and  C_10 
REMARK    8  A    between atoms: C_11  and  O_24 
REMARK    9  A    between atoms: C_13  and  O_23 
REMARK   10  A    between atoms: C_14  and  C_15 
REMARK   11  A    between atoms: C_15  and  C_16 
REMARK   12  A    between atoms: C_17  and  C_18 
REMARK   13  A    between atoms: C_18  and  C_19 
REMARK   14  A    between atoms: C_19  and  C_20 
REMARK   15  A    between atoms: C_20  and  C_21 
ROOT
ATOM      1  C   UNL d   1      -0.038  -2.864   5.519  0.00  0.00     0.043 C 
ATOM      2  C   UNL d   1      -0.452  -3.538   6.851  0.00  0.00     0.128 C 
ATOM      3  C   UNL d   1      -1.752  -2.784   7.227  0.00  0.00     0.064 C 
ATOM      4  C   UNL d   1      -1.477  -1.325   6.809  0.00  0.00     0.125 C 
ATOM      5  C   UNL d   1      -0.388  -1.375   5.723  0.00  0.00     0.028 C 
ENDROOT
BRANCH   1   6
ATOM      6  C   UNL d   1      -0.828  -3.438   4.371  0.00  0.00    -0.020 C 
ATOM      7  C   UNL d   1      -0.205  -3.937   3.332  0.00  0.00     0.007 C 
BRANCH   7   8
ATOM      8  C   UNL d   1      -0.995  -4.511   2.184  0.00  0.00     0.072 C 
ATOM      9  C   UNL d   1      -0.631  -5.986   2.002  0.00  0.00     0.050 C 
BRANCH   8  10
ATOM     10  C   UNL d   1      -0.664  -3.743   0.903  0.00  0.00     0.041 C 
BRANCH  10  11
ATOM     11  C   UNL d   1      -1.466  -4.325  -0.263  0.00  0.00     0.003 C 
BRANCH  11  12
ATOM     12  C   UNL d   1      -1.136  -3.556  -1.543  0.00  0.00    -0.000 C 
BRANCH  12  13
ATOM     13  C   UNL d   1      -1.938  -4.139  -2.709  0.00  0.00    -0.005 C 
ATOM     14  C   UNL d   1      -1.607  -3.370  -3.990  0.00  0.00     0.005 C 
ENDBRANCH  12  13
ENDBRANCH  11  12
ENDBRANCH  10  11
ENDBRANCH   8  10
BRANCH   8  15
ATOM     15  O   UNL d   1      -2.392  -4.396   2.462  0.00  0.00    -0.386 OA
ATOM     16  H   UNL d   1      -2.694  -3.486   2.589  0.00  0.00     0.211 HD
ENDBRANCH   8  15
ENDBRANCH   7   8
ENDBRANCH   1   6
BRANCH   5  17
ATOM     17  C   UNL d   1      -0.919  -0.778   4.419  0.00  0.00     0.034 C 
BRANCH  17  18
ATOM     18  C   UNL d   1      -1.172   0.696   4.609  0.00  0.00    -0.030 C 
ATOM     19  C   UNL d   1      -0.635   1.563   3.787  0.00  0.00    -0.031 C 
BRANCH  19  20
ATOM     20  C   UNL d   1       0.094   1.086   2.558  0.00  0.00     0.027 C 
BRANCH  20  21
ATOM     21  C   UNL d   1      -0.463   1.800   1.325  0.00  0.00     0.014 C 
BRANCH  21  22
ATOM     22  C   UNL d   1       0.276   1.315   0.076  0.00  0.00     0.113 C 
BRANCH  22  23
ATOM     23  C   UNL d   1      -0.272   2.019  -1.138  0.00  0.00     0.172 C 
ATOM     24  O   UNL d   1      -1.164   2.826  -1.017  0.00  0.00    -0.648 OA
ATOM     25  O   UNL d   1       0.229   1.750  -2.354  0.00  0.00    -0.648 OA
ENDBRANCH  22  23
ENDBRANCH  21  22
ENDBRANCH  20  21
ENDBRANCH  19  20
ENDBRANCH  17  18
ENDBRANCH   5  17
BRANCH   2  26
ATOM     26  O   UNL d   1      -0.711  -4.929   6.656  0.00  0.00    -0.395 OA
ATOM     27  H   UNL d   1      -1.050  -5.380   7.441  0.00  0.00     0.210 HD
ENDBRANCH   2  26
BRANCH   4  28
ATOM     28  O   UNL d   1      -2.666  -0.734   6.282  0.00  0.00    -0.395 OA
ATOM     29  H   UNL d   1      -3.391  -0.673   6.919  0.00  0.00     0.210 HD
ENDBRANCH   4  28
TORSDOF 15
