REMARK  12 active torsions:
REMARK  status: ('A' for Active; 'I' for Inactive)
REMARK    1  A    between atoms: C_2  and  C_3 
REMARK    2  A    between atoms: C_4  and  O_51 
REMARK    3  A    between atoms: C_5  and  O_49 
REMARK    4  A    between atoms: C_11  and  O_45 
REMARK    5  A    between atoms: C_12  and  O_33 
REMARK    6  A    between atoms: C_14  and  O_20 
REMARK    7  A    between atoms: O_20  and  C_21 
REMARK    8  A    between atoms: C_23  and  O_30 
REMARK    9  A    between atoms: C_24  and  O_28 
REMARK   10  A    between atoms: O_33  and  C_34 
REMARK   11  A    between atoms: C_35  and  O_43 
REMARK   12  A    between atoms: C_36  and  N_56 
ROOT
ATOM      1  C   UNL d   1      -1.712  -0.453   1.737  0.00  0.00     0.168 C 
ATOM      2  C   UNL d   1      -0.880  -0.742   0.485  0.00  0.00     0.107 C 
ATOM      3  C   UNL d   1       0.592  -0.891   0.874  0.00  0.00     0.165 C 
ATOM      4  C   UNL d   1       1.475  -0.364  -0.259  0.00  0.00     0.083 C 
ATOM      5  C   UNL d   1       2.756   0.184   0.316  0.00  0.00     0.137 C 
ATOM      6  O   UNL d   1       3.485  -0.533   0.958  0.00  0.00    -0.297 OA
ATOM      7  C   UNL d   1       3.127   1.627   0.087  0.00  0.00     0.054 C 
ATOM      8  C   UNL d   1       3.383   2.307   1.434  0.00  0.00     0.052 C 
ATOM      9  C   UNL d   1       2.695   3.673   1.455  0.00  0.00     0.084 C 
ATOM     10  C   UNL d   1       1.963   3.854   2.786  0.00  0.00     0.165 C 
ATOM     11  C   UNL d   1       0.491   4.179   2.519  0.00  0.00     0.043 C 
ATOM     12  C   UNL d   1      -0.362   3.677   3.686  0.00  0.00     0.144 C 
ATOM     13  C   UNL d   1      -1.655   3.063   3.145  0.00  0.00     0.111 C 
ATOM     14  C   UNL d   1      -1.466   1.579   2.957  0.00  0.00     0.265 C 
ATOM     15  O   UNL d   1      -0.895   0.932   3.802  0.00  0.00    -0.265 OA
ATOM     16  O   UNL d   1      -1.931   0.978   1.851  0.00  0.00    -0.312 OA
ATOM     17  C   UNL d   1      -2.792   3.311   4.138  0.00  0.00     0.023 C 
ATOM     18  C   UNL d   1       0.321   5.692   2.376  0.00  0.00     0.015 C 
ATOM     19  C   UNL d   1       3.744   4.775   1.295  0.00  0.00     0.049 C 
ATOM     20  C   UNL d   1       4.393   1.698  -0.769  0.00  0.00     0.018 C 
ATOM     21  C   UNL d   1       1.796  -1.504  -1.227  0.00  0.00     0.020 C 
ATOM     22  C   UNL d   1      -1.369  -2.039  -0.163  0.00  0.00     0.051 C 
ENDROOT
BRANCH  10  23
ATOM     23  O   UNL d   1       2.054   2.649   3.548  0.00  0.00    -0.350 OA
BRANCH  23  24
ATOM     24  C   UNL d   1       3.369   2.363   4.028  0.00  0.00     0.291 C 
ATOM     25  O   UNL d   1       3.552   2.972   5.308  0.00  0.00    -0.354 OA
ATOM     26  C   UNL d   1       4.850   2.768   5.871  0.00  0.00     0.122 C 
ATOM     27  C   UNL d   1       5.088   1.270   6.072  0.00  0.00     0.067 C 
ATOM     28  C   UNL d   1       4.939   3.485   7.220  0.00  0.00     0.040 C 
ATOM     29  C   UNL d   1       4.938   0.552   4.727  0.00  0.00     0.223 C 
ATOM     30  C   UNL d   1       3.548   0.848   4.155  0.00  0.00     0.204 C 
BRANCH  29  31
ATOM     31  N   UNL d   1       5.071  -0.904   4.942  0.00  0.00    -0.072 N 
ATOM     32  C   UNL d   1       4.829  -1.627   3.675  0.00  0.00     0.269 C 
ATOM     33  C   UNL d   1       6.423  -1.218   5.452  0.00  0.00     0.269 C 
ATOM     34  H   UNL d   1       4.375  -1.204   5.635  0.00  0.00     0.279 HD
ENDBRANCH  29  31
BRANCH  30  35
ATOM     35  O   UNL d   1       2.549   0.321   5.030  0.00  0.00    -0.389 OA
ATOM     36  H   UNL d   1       1.652   0.355   4.668  0.00  0.00     0.210 HD
ENDBRANCH  30  35
ENDBRANCH  23  24
ENDBRANCH  10  23
BRANCH   9  37
ATOM     37  O   UNL d   1       1.756   3.749   0.381  0.00  0.00    -0.383 OA
ATOM     38  C   UNL d   1       1.479   5.082  -0.056  0.00  0.00     0.202 C 
ENDBRANCH   9  37
BRANCH  12  39
ATOM     39  O   UNL d   1       0.366   2.688   4.417  0.00  0.00    -0.355 OA
BRANCH  39  40
ATOM     40  C   UNL d   1      -0.140   2.448   5.731  0.00  0.00     0.263 C 
ATOM     41  O   UNL d   1      -1.371   1.727   5.644  0.00  0.00    -0.354 OA
ATOM     42  C   UNL d   1      -1.979   1.455   6.908  0.00  0.00     0.152 C 
ATOM     43  C   UNL d   1      -1.037   0.593   7.752  0.00  0.00     0.181 C 
ATOM     44  C   UNL d   1      -3.297   0.709   6.691  0.00  0.00     0.042 C 
ATOM     45  C   UNL d   1       0.301   1.321   7.914  0.00  0.00     0.089 C 
ATOM     46  C   UNL d   1       0.876   1.625   6.527  0.00  0.00     0.101 C 
ATOM     47  C   UNL d   1       1.277   0.434   8.690  0.00  0.00     0.049 C 
BRANCH  43  48
ATOM     48  O   UNL d   1      -0.823  -0.660   7.098  0.00  0.00    -0.390 OA
ATOM     49  H   UNL d   1      -1.629  -1.175   6.962  0.00  0.00     0.210 HD
ENDBRANCH  43  48
BRANCH  45  50
ATOM     50  O   UNL d   1       0.096   2.543   8.626  0.00  0.00    -0.383 OA
ATOM     51  C   UNL d   1       1.295   3.284   8.864  0.00  0.00     0.202 C 
ENDBRANCH  45  50
ENDBRANCH  39  40
ENDBRANCH  12  39
BRANCH   3  52
ATOM     52  O   UNL d   1       0.848  -0.142   2.065  0.00  0.00    -0.392 OA
ATOM     53  H   UNL d   1       1.764  -0.191   2.370  0.00  0.00     0.210 HD
ENDBRANCH   3  52
BRANCH   1  54
ATOM     54  C   UNL d   1      -3.060  -1.169   1.630  0.00  0.00     0.031 C 
ATOM     55  C   UNL d   1      -3.840  -0.982   2.933  0.00  0.00     0.007 C 
ENDBRANCH   1  54
BRANCH   2  56
ATOM     56  O   UNL d   1      -1.022   0.337  -0.441  0.00  0.00    -0.385 OA
ATOM     57  H   UNL d   1      -1.931   0.488  -0.732  0.00  0.00     0.210 HD
ENDBRANCH   2  56
TORSDOF 12
