REMARK  5 active torsions:
REMARK  status: ('A' for Active; 'I' for Inactive)
REMARK    1  A    between atoms: C_6  and  O_21 
REMARK    2  A    between atoms: C_11  and  O_20 
REMARK    3  A    between atoms: C_12  and  N_28 
REMARK    4  A    between atoms: C_13  and  O_18 
REMARK    5  A    between atoms: C_14  and  N_25 
ROOT
ATOM      1  C   UNL d   1      -4.358   5.847  -2.108  0.00  0.00     0.040 C 
ATOM      2  C   UNL d   1      -3.674   5.443  -3.415  0.00  0.00     0.128 C 
ATOM      3  C   UNL d   1      -2.287   6.089  -3.481  0.00  0.00     0.116 C 
ATOM      4  C   UNL d   1      -1.390   5.429  -2.432  0.00  0.00     0.196 C 
ATOM      5  O   UNL d   1      -0.709   6.070  -1.667  0.00  0.00    -0.292 OA
ATOM      6  C   UNL d   1      -1.391   3.919  -2.421  0.00  0.00     0.277 C 
ATOM      7  C   UNL d   1      -2.856   3.462  -2.363  0.00  0.00     0.331 C 
ATOM      8  O   UNL d   1      -3.558   4.016  -3.468  0.00  0.00    -0.350 OA
ATOM      9  O   UNL d   1      -2.891   2.037  -2.359  0.00  0.00    -0.345 OA
ATOM     10  C   UNL d   1      -2.202   1.483  -1.225  0.00  0.00     0.187 C 
ATOM     11  C   UNL d   1      -2.904   1.964   0.048  0.00  0.00     0.183 C 
ATOM     12  C   UNL d   1      -2.166   1.431   1.277  0.00  0.00     0.247 C 
ATOM     13  C   UNL d   1      -0.731   1.956   1.271  0.00  0.00     0.184 C 
ATOM     14  C   UNL d   1      -0.018   1.465   0.010  0.00  0.00     0.247 C 
ATOM     15  C   UNL d   1      -0.752   1.968  -1.228  0.00  0.00     0.190 C 
ATOM     16  O   UNL d   1      -0.711   3.399  -1.279  0.00  0.00    -0.335 OA
ENDROOT
BRANCH  12  17
ATOM     17  N   UNL d   1      -2.143  -0.044   1.238  0.00  0.00    -0.070 N 
ATOM     18  C   UNL d   1      -3.384  -0.591   1.819  0.00  0.00     0.267 C 
ATOM     19  H   UNL d   1      -1.338  -0.384   1.776  0.00  0.00     0.277 HD
ATOM     20  H   UNL d   1      -2.061  -0.355   0.263  0.00  0.00     0.277 HD
ENDBRANCH  12  17
BRANCH  11  21
ATOM     21  O   UNL d   1      -2.907   3.392   0.078  0.00  0.00    -0.391 OA
ATOM     22  H   UNL d   1      -3.336   3.768   0.859  0.00  0.00     0.210 HD
ENDBRANCH  11  21
BRANCH  13  23
ATOM     23  O   UNL d   1      -0.745   3.385   1.285  0.00  0.00    -0.391 OA
ATOM     24  H   UNL d   1      -1.182   3.767   2.059  0.00  0.00     0.210 HD
ENDBRANCH  13  23
BRANCH  14  25
ATOM     25  N   UNL d   1      -0.005  -0.010  -0.003  0.00  0.00    -0.070 N 
ATOM     26  C   UNL d   1       1.140  -0.519   0.775  0.00  0.00     0.267 C 
ATOM     27  H   UNL d   1       0.071  -0.340  -0.973  0.00  0.00     0.277 HD
ATOM     28  H   UNL d   1      -0.878  -0.360   0.410  0.00  0.00     0.277 HD
ENDBRANCH  14  25
BRANCH   6  29
ATOM     29  O   UNL d   1      -0.780   3.420  -3.612  0.00  0.00    -0.356 OA
ATOM     30  H   UNL d   1       0.153   3.657  -3.704  0.00  0.00     0.213 HD
ENDBRANCH   6  29
TORSDOF 5
