REMARK  13 active torsions:
REMARK  status: ('A' for Active; 'I' for Inactive)
REMARK    1  A    between atoms: C_2  and  C_3 
REMARK    2  A    between atoms: C_2  and  N_48 
REMARK    3  A    between atoms: C_6  and  N_46 
REMARK    4  A    between atoms: C_7  and  O_9 
REMARK    5  A    between atoms: O_9  and  C_10 
REMARK    6  A    between atoms: C_11  and  N_44 
REMARK    7  A    between atoms: C_13  and  N_42 
REMARK    8  A    between atoms: C_14  and  O_17 
REMARK    9  A    between atoms: C_15  and  O_16 
REMARK   10  A    between atoms: O_17  and  C_18 
REMARK   11  A    between atoms: C_19  and  O_27 
REMARK   12  A    between atoms: C_20  and  N_39 
REMARK   13  A    between atoms: C_21  and  O_25 
ROOT
ATOM      1  C   UNL d   1       3.165  -3.769  -4.749  0.00  0.00     0.186 C 
ATOM      2  C   UNL d   1       3.655  -5.075  -4.121  0.00  0.00     0.217 C 
ATOM      3  C   UNL d   1       3.889  -4.864  -2.624  0.00  0.00     0.071 C 
ATOM      4  C   UNL d   1       4.942  -3.773  -2.420  0.00  0.00     0.217 C 
ATOM      5  C   UNL d   1       4.451  -2.468  -3.049  0.00  0.00     0.186 C 
ATOM      6  C   UNL d   1       4.218  -2.678  -4.546  0.00  0.00     0.180 C 
ENDROOT
BRANCH   1   7
ATOM      7  O   UNL d   1       1.941  -3.372  -4.128  0.00  0.00    -0.349 OA
BRANCH   7   8
ATOM      8  C   UNL d   1       0.770  -3.868  -4.780  0.00  0.00     0.291 C 
ATOM      9  C   UNL d   1      -0.472  -3.440  -3.994  0.00  0.00     0.238 C 
ATOM     10  C   UNL d   1      -0.558  -1.911  -3.983  0.00  0.00     0.040 C 
ATOM     11  C   UNL d   1      -0.580  -1.401  -5.428  0.00  0.00     0.036 C 
ATOM     12  C   UNL d   1       0.666  -1.907  -6.158  0.00  0.00     0.154 C 
ATOM     13  O   UNL d   1       0.701  -3.335  -6.104  0.00  0.00    -0.352 OA
BRANCH   9  14
ATOM     14  N   UNL d   1      -0.354  -3.924  -2.607  0.00  0.00    -0.070 N 
ATOM     15  H   UNL d   1      -1.184  -3.666  -2.076  0.00  0.00     0.274 HD
ATOM     16  H   UNL d   1      -0.247  -4.937  -2.599  0.00  0.00     0.274 HD
ATOM     17  H   UNL d   1       0.470  -3.496  -2.170  0.00  0.00     0.274 HD
ENDBRANCH   9  14
BRANCH  12  18
ATOM     18  C   UNL d   1       0.622  -1.453  -7.618  0.00  0.00     0.208 C 
ATOM     19  C   UNL d   1       1.873  -1.948  -8.345  0.00  0.00     0.042 C 
BRANCH  18  20
ATOM     20  N   UNL d   1      -0.570  -2.032  -8.263  0.00  0.00    -0.073 N 
ATOM     21  H   UNL d   1      -1.415  -1.660  -7.834  0.00  0.00     0.274 HD
ATOM     22  H   UNL d   1      -0.570  -1.813  -9.258  0.00  0.00     0.274 HD
ATOM     23  H   UNL d   1      -0.555  -3.052  -8.145  0.00  0.00     0.274 HD
ENDBRANCH  18  20
ENDBRANCH  12  18
ENDBRANCH   7   8
ENDBRANCH   1   7
BRANCH   6  24
ATOM     24  O   UNL d   1       3.760  -1.459  -5.133  0.00  0.00    -0.390 OA
ATOM     25  H   UNL d   1       4.351  -0.707  -4.989  0.00  0.00     0.210 HD
ENDBRANCH   6  24
BRANCH   2  26
ATOM     26  N   UNL d   1       2.641  -6.121  -4.341  0.00  0.00    -0.072 N 
ATOM     27  H   UNL d   1       2.998  -7.024  -4.034  0.00  0.00     0.274 HD
ATOM     28  H   UNL d   1       1.792  -5.899  -3.825  0.00  0.00     0.274 HD
ATOM     29  H   UNL d   1       2.421  -6.172  -5.343  0.00  0.00     0.274 HD
ENDBRANCH   2  26
BRANCH   5  30
ATOM     30  O   UNL d   1       3.228  -2.070  -2.427  0.00  0.00    -0.349 OA
BRANCH  30  31
ATOM     31  C   UNL d   1       3.196  -0.698  -2.029  0.00  0.00     0.291 C 
ATOM     32  O   UNL d   1       2.943   0.123  -3.171  0.00  0.00    -0.356 OA
ATOM     33  C   UNL d   1       2.916   1.524  -2.888  0.00  0.00     0.210 C 
ATOM     34  C   UNL d   1       1.794   1.820  -1.889  0.00  0.00     0.106 C 
ATOM     35  C   UNL d   1       2.019   0.993  -0.620  0.00  0.00     0.254 C 
ATOM     36  C   UNL d   1       0.446   1.449  -2.510  0.00  0.00     0.050 C 
ATOM     37  C   UNL d   1       2.086  -0.491  -0.996  0.00  0.00     0.207 C 
BRANCH  34  38
ATOM     38  O   UNL d   1       1.803   3.211  -1.560  0.00  0.00    -0.386 OA
ATOM     39  H   UNL d   1       1.671   3.795  -2.319  0.00  0.00     0.210 HD
ENDBRANCH  34  38
BRANCH  35  40
ATOM     40  N   UNL d   1       0.897   1.216   0.311  0.00  0.00    -0.069 N 
ATOM     41  C   UNL d   1       1.321   0.946   1.698  0.00  0.00     0.267 C 
ATOM     42  H   UNL d   1       0.123   0.589   0.065  0.00  0.00     0.277 HD
ATOM     43  H   UNL d   1       0.584   2.191   0.236  0.00  0.00     0.277 HD
ENDBRANCH  35  40
BRANCH  37  44
ATOM     44  O   UNL d   1       0.834  -0.899  -1.552  0.00  0.00    -0.388 OA
ATOM     45  H   UNL d   1       0.805  -1.830  -1.813  0.00  0.00     0.210 HD
ENDBRANCH  37  44
ENDBRANCH  30  31
ENDBRANCH   5  30
BRANCH   4  46
ATOM     46  N   UNL d   1       5.143  -3.565  -0.975  0.00  0.00    -0.072 N 
ATOM     47  H   UNL d   1       5.491  -4.420  -0.544  0.00  0.00     0.274 HD
ATOM     48  H   UNL d   1       5.810  -2.811  -0.820  0.00  0.00     0.274 HD
ATOM     49  H   UNL d   1       4.246  -3.313  -0.543  0.00  0.00     0.274 HD
ENDBRANCH   4  46
TORSDOF 13
