REMARK  9 active torsions:
REMARK  status: ('A' for Active; 'I' for Inactive)
REMARK    1  A    between atoms: C_3  and  O_32 
REMARK    2  A    between atoms: C_6  and  CA_7 
REMARK    3  A    between atoms: CA_7  and  C_8 
REMARK    4  A    between atoms: CA_7  and  N_38 
REMARK       I    between atoms: C_8  and  N_10 
REMARK    5  A    between atoms: N_10  and  CA_11 
REMARK    6  A    between atoms: CA_16  and  C_30 
REMARK    7  A    between atoms: C_17  and  C_20 
REMARK    8  A    between atoms: C_20  and  S_21 
REMARK    9  A    between atoms: S_21  and  C_22 
ROOT
ATOM      1  CA  UNL d   1       2.147  -1.599   0.786  0.00  0.00     0.210 C 
ATOM      2  C   UNL d   1       1.383  -0.343   1.193  0.00  0.00     0.187 C 
ATOM      3  N   UNL d   1       2.515   0.408   0.562  0.00  0.00    -0.293 N 
ATOM      4  C   UNL d   1       3.296  -0.677   0.414  0.00  0.00     0.251 C 
ATOM      5  O   UNL d   1       4.455  -0.851   0.105  0.00  0.00    -0.271 OA
ATOM      6  CA  UNL d   1       2.506   1.756   0.168  0.00  0.00     0.119 C 
ATOM      7  C   UNL d   1       1.358   2.384  -0.034  0.00  0.00    -0.027 C 
ATOM      8  C   UNL d   1      -0.030   1.864   0.151  0.00  0.00     0.113 C 
ATOM      9  S   UNL d   1      -0.080   0.046   0.175  0.00  0.00    -0.136 SA
ENDROOT
BRANCH   1  10
ATOM     10  N   UNL d   1       2.449  -2.492   1.907  0.00  0.00    -0.343 N 
ATOM     11  C   UNL d   1       2.644  -3.807   1.688  0.00  0.00     0.253 C 
ATOM     12  O   UNL d   1       2.568  -4.252   0.562  0.00  0.00    -0.271 OA
ATOM     13  H   UNL d   1       2.510  -2.136   2.808  0.00  0.00     0.163 HD
BRANCH  11  14
ATOM     14  CA  UNL d   1       2.955  -4.726   2.841  0.00  0.00     0.307 C 
BRANCH  14  15
ATOM     15  C   UNL d   1       4.415  -4.608   3.197  0.00  0.00    -0.019 A 
ATOM     16  C   UNL d   1       5.364  -5.285   2.453  0.00  0.00     0.012 A 
ATOM     17  C   UNL d   1       6.703  -5.174   2.775  0.00  0.00     0.037 A 
ATOM     18  C   UNL d   1       7.094  -4.392   3.852  0.00  0.00     0.065 A 
ATOM     19  C   UNL d   1       6.139  -3.719   4.600  0.00  0.00     0.037 A 
ATOM     20  C   UNL d   1       4.802  -3.828   4.271  0.00  0.00     0.012 A 
BRANCH  18  21
ATOM     21  O   UNL d   1       8.410  -4.286   4.174  0.00  0.00    -0.361 OA
ATOM     22  H   UNL d   1       8.716  -4.955   4.801  0.00  0.00     0.217 HD
ENDBRANCH  18  21
ENDBRANCH  14  15
BRANCH  14  23
ATOM     23  N   UNL d   1       2.662  -6.124   2.479  0.00  0.00    -0.062 N 
ATOM     24  H1  UNL d   1       1.670  -6.232   2.276  0.00  0.00     0.275 HD
ATOM     25  H2  UNL d   1       3.207  -6.394   1.661  0.00  0.00     0.275 HD
ATOM     26  H3  UNL d   1       2.912  -6.736   3.265  0.00  0.00     0.275 HD
ENDBRANCH  14  23
ENDBRANCH  11  14
ENDBRANCH   1  10
BRANCH   6  27
ATOM     27  C   UNL d   1       3.779   2.474  -0.023  0.00  0.00     0.227 C 
ATOM     28  O   UNL d   1       4.349   2.426  -1.096  0.00  0.00    -0.643 OA
ATOM     29  OXT UNL d   1       4.312   3.182   0.992  0.00  0.00    -0.643 OA
ENDBRANCH   6  27
BRANCH   7  30
ATOM     30  C   UNL d   1       1.466   3.809  -0.512  0.00  0.00     0.118 C 
BRANCH  30  31
ATOM     31  S   UNL d   1       1.147   3.874  -2.297  0.00  0.00    -0.105 SA
BRANCH  31  32
ATOM     32  C   UNL d   1       1.309   5.582  -2.697  0.00  0.00     0.103 A 
ATOM     33  C   UNL d   1       1.167   6.146  -3.926  0.00  0.00     0.146 A 
ATOM     34  N   UNL d   1       1.369   7.459  -3.824  0.00  0.00    -0.295 N 
ATOM     35  N   UNL d   1       1.627   7.771  -2.602  0.00  0.00    -0.242 N 
ATOM     36  HN  UNL d   1       1.327   8.119  -4.600  1.00  0.00     0.187 HD
ATOM     37  H   UNL d   1       1.814   8.692  -2.259  0.00  0.00     0.208 HD
ATOM     38  N   UNL d   1       1.600   6.597  -1.835  0.00  0.00    -0.279 N 
ATOM     39  HN  UNL d   1       1.766   6.518  -0.831  1.00  0.00     0.189 HD
ENDBRANCH  31  32
ENDBRANCH  30  31
ENDBRANCH   7  30
TORSDOF 9
