REMARK  1 active torsions:
REMARK  status: ('A' for Active; 'I' for Inactive)
REMARK    1  A    between atoms: C_8  and  N_12 
ROOT
ATOM      1  C   UNL d   1      -2.334   4.572  -0.237  0.00  0.00     0.018 C 
ATOM      2  C   UNL d   1      -1.384   3.454   0.198  0.00  0.00    -0.011 C 
ATOM      3  C   UNL d   1      -2.192   2.204   0.661  0.00  0.00    -0.004 C 
ATOM      4  C   UNL d   1      -1.119   1.257   1.288  0.00  0.00     0.006 C 
ATOM      5  C   UNL d   1      -0.288   0.761   0.083  0.00  0.00     0.007 C 
ATOM      6  C   UNL d   1      -0.933   1.453  -1.156  0.00  0.00     0.022 C 
ATOM      7  C   UNL d   1      -2.439   1.492  -0.715  0.00  0.00     0.012 C 
ATOM      8  C   UNL d   1      -0.533   2.954  -1.017  0.00  0.00     0.132 C 
ATOM      9  C   UNL d   1       0.966   3.082  -0.737  0.00  0.00     0.047 C 
ATOM     10  C   UNL d   1      -0.466   3.942   1.320  0.00  0.00     0.018 C 
ENDROOT
BRANCH   8  11
ATOM     11  N   UNL d   1      -0.900   3.702  -2.234  0.00  0.00    -0.069 N 
ATOM     12  C   UNL d   1      -0.179   3.164  -3.403  0.00  0.00     0.267 C 
ATOM     13  H   UNL d   1      -0.653   4.691  -2.110  0.00  0.00     0.277 HD
ATOM     14  H   UNL d   1      -1.911   3.619  -2.392  0.00  0.00     0.277 HD
ENDBRANCH   8  11
TORSDOF 1
