REMARK  5 active torsions:
REMARK  status: ('A' for Active; 'I' for Inactive)
REMARK    1  A    between atoms: C_6  and  O_21 
REMARK    2  A    between atoms: C_11  and  O_20 
REMARK    3  A    between atoms: C_12  and  N_28 
REMARK    4  A    between atoms: C_13  and  O_18 
REMARK    5  A    between atoms: C_14  and  N_25 
ROOT
ATOM      1  C   UNL d   1       2.129   6.492   3.823  0.00  0.00     0.040 C 
ATOM      2  C   UNL d   1       2.867   6.088   5.101  0.00  0.00     0.128 C 
ATOM      3  C   UNL d   1       1.905   6.169   6.290  0.00  0.00     0.116 C 
ATOM      4  C   UNL d   1       0.876   5.060   6.164  0.00  0.00     0.196 C 
ATOM      5  O   UNL d   1      -0.305   5.271   6.294  0.00  0.00    -0.292 OA
ATOM      6  C   UNL d   1       1.408   3.677   5.866  0.00  0.00     0.277 C 
ATOM      7  C   UNL d   1       2.350   3.798   4.660  0.00  0.00     0.331 C 
ATOM      8  O   UNL d   1       3.363   4.752   4.957  0.00  0.00    -0.350 OA
ATOM      9  O   UNL d   1       2.878   2.509   4.361  0.00  0.00    -0.345 OA
ATOM     10  C   UNL d   1       1.845   1.562   4.034  0.00  0.00     0.187 C 
ATOM     11  C   UNL d   1       1.120   2.053   2.778  0.00  0.00     0.183 C 
ATOM     12  C   UNL d   1      -0.016   1.091   2.429  0.00  0.00     0.247 C 
ATOM     13  C   UNL d   1      -1.012   1.042   3.591  0.00  0.00     0.184 C 
ATOM     14  C   UNL d   1      -0.307   0.552   4.838  0.00  0.00     0.247 C 
ATOM     15  C   UNL d   1       0.858   1.469   5.197  0.00  0.00     0.190 C 
ATOM     16  O   UNL d   1       0.360   2.769   5.530  0.00  0.00    -0.335 OA
ENDROOT
BRANCH  12  17
ATOM     17  N   UNL d   1      -0.709   1.566   1.217  0.00  0.00    -0.070 N 
ATOM     18  C   UNL d   1      -0.013   1.086   0.008  0.00  0.00     0.267 C 
ATOM     19  H   UNL d   1      -0.723   2.592   1.214  0.00  0.00     0.277 HD
ATOM     20  H   UNL d   1      -1.672   1.210   1.216  0.00  0.00     0.277 HD
ENDBRANCH  12  17
BRANCH  11  21
ATOM     21  O   UNL d   1       0.583   3.355   3.019  0.00  0.00    -0.391 OA
ATOM     22  H   UNL d   1       0.112   3.732   2.264  0.00  0.00     0.210 HD
ENDBRANCH  11  21
BRANCH  13  23
ATOM     23  O   UNL d   1      -2.084   0.157   3.263  0.00  0.00    -0.391 OA
ATOM     24  H   UNL d   1      -2.580   0.414   2.474  0.00  0.00     0.210 HD
ENDBRANCH  13  23
BRANCH  14  25
ATOM     25  N   UNL d   1       0.210  -0.804   4.572  0.00  0.00    -0.070 N 
ATOM     26  C   UNL d   1      -0.843  -1.809   4.809  0.00  0.00     0.267 C 
ATOM     27  H   UNL d   1       1.004  -0.992   5.196  0.00  0.00     0.277 HD
ATOM     28  H   UNL d   1       0.521  -0.863   3.595  0.00  0.00     0.277 HD
ENDBRANCH  14  25
BRANCH   6  29
ATOM     29  O   UNL d   1       2.125   3.184   7.000  0.00  0.00    -0.356 OA
ATOM     30  H   UNL d   1       1.581   3.074   7.791  0.00  0.00     0.213 HD
ENDBRANCH   6  29
TORSDOF 5
