REMARK  8 active torsions:
REMARK  status: ('A' for Active; 'I' for Inactive)
REMARK    1  A    between atoms: C_2  and  C_3 
REMARK    2  A    between atoms: C_3  and  C_5 
REMARK    3  A    between atoms: C_5  and  O_7 
REMARK    4  A    between atoms: O_7  and  C_8 
REMARK    5  A    between atoms: C_14  and  C_19 
REMARK    6  A    between atoms: C_19  and  C_20 
REMARK    7  A    between atoms: C_20  and  C_21 
REMARK    8  A    between atoms: C_23  and  O_28 
ROOT
ATOM      1  C   UNL d   1      -1.367   2.135   3.877  0.00  0.00     0.141 C 
ATOM      2  C   UNL d   1      -0.864   1.742   2.489  0.00  0.00     0.041 C 
ATOM      3  C   UNL d   1      -1.680   2.514   1.443  0.00  0.00     0.007 C 
ATOM      4  C   UNL d   1      -1.444   3.984   1.669  0.00  0.00    -0.015 C 
ATOM      5  C   UNL d   1      -1.198   4.457   2.880  0.00  0.00    -0.055 C 
ATOM      6  C   UNL d   1      -1.239   3.620   4.124  0.00  0.00     0.052 C 
ATOM      7  C   UNL d   1       0.008   3.957   4.944  0.00  0.00     0.004 C 
ATOM      8  C   UNL d   1      -0.070   5.429   5.366  0.00  0.00     0.009 C 
ATOM      9  C   UNL d   1      -0.339   6.312   4.186  0.00  0.00    -0.022 C 
ATOM     10  C   UNL d   1      -0.859   5.890   3.047  0.00  0.00     0.004 C 
ATOM     11  C   UNL d   1      -1.187   5.618   6.395  0.00  0.00     0.014 C 
ATOM     12  C   UNL d   1      -1.219   2.125   0.037  0.00  0.00     0.014 C 
ENDROOT
BRANCH   7  13
ATOM     13  C   UNL d   1       0.050   3.082   6.199  0.00  0.00     0.009 C 
BRANCH  13  14
ATOM     14  C   UNL d   1       0.960   3.731   7.243  0.00  0.00     0.033 C 
BRANCH  14  15
ATOM     15  C   UNL d   1       0.987   2.865   8.504  0.00  0.00     0.134 C 
ATOM     16  O   UNL d   1       1.592   1.578   8.197  0.00  0.00    -0.316 OA
ATOM     17  C   UNL d   1       1.812   0.768   9.254  0.00  0.00     0.261 C 
ATOM     18  C   UNL d   1       2.543   1.339  10.448  0.00  0.00     0.142 C 
ATOM     19  O   UNL d   1       1.435  -0.380   9.246  0.00  0.00    -0.265 OA
ATOM     20  C   UNL d   1       1.884   2.670  10.829  0.00  0.00     0.130 C 
ATOM     21  C   UNL d   1       1.815   3.564   9.587  0.00  0.00     0.065 C 
BRANCH  20  22
ATOM     22  O   UNL d   1       2.658   3.315  11.842  0.00  0.00    -0.395 OA
ATOM     23  H   UNL d   1       2.749   2.800  12.655  0.00  0.00     0.210 HD
ENDBRANCH  20  22
ENDBRANCH  14  15
ENDBRANCH  13  14
ENDBRANCH   7  13
BRANCH   1  24
ATOM     24  O   UNL d   1      -0.596   1.421   4.879  0.00  0.00    -0.315 OA
BRANCH  24  25
ATOM     25  C   UNL d   1      -1.088   0.247   5.305  0.00  0.00     0.263 C 
ATOM     26  O   UNL d   1      -2.136  -0.164   4.865  0.00  0.00    -0.265 OA
BRANCH  25  27
ATOM     27  C   UNL d   1      -0.335  -0.557   6.333  0.00  0.00     0.081 C 
ATOM     28  C   UNL d   1       1.062  -0.884   5.801  0.00  0.00     0.020 C 
BRANCH  27  29
ATOM     29  C   UNL d   1      -1.090  -1.857   6.616  0.00  0.00     0.010 C 
ATOM     30  C   UNL d   1      -0.413  -2.599   7.770  0.00  0.00     0.006 C 
ENDBRANCH  27  29
ENDBRANCH  25  27
ENDBRANCH  24  25
ENDBRANCH   1  24
TORSDOF 8
