REMARK  8 active torsions:
REMARK  status: ('A' for Active; 'I' for Inactive)
REMARK    1  A    between atoms: C_2  and  C_3 
REMARK    2  A    between atoms: C_2  and  C_10 
REMARK    3  A    between atoms: C_3  and  C_4 
REMARK    4  A    between atoms: C_4  and  C_5 
REMARK    5  A    between atoms: C_5  and  C_6 
REMARK    6  A    between atoms: C_6  and  O_9 
REMARK    7  A    between atoms: C_19  and  C_20 
REMARK    8  A    between atoms: C_23  and  O_28 
ROOT
ATOM      1  C   UNL d   1       0.098   1.248  -2.512  0.00  0.00    -0.002 C 
ATOM      2  C   UNL d   1       1.462   1.978  -2.618  0.00  0.00     0.006 C 
ATOM      3  C   UNL d   1       1.440   2.752  -3.967  0.00  0.00     0.010 C 
ATOM      4  C   UNL d   1       0.419   1.964  -4.791  0.00  0.00     0.023 C 
ATOM      5  C   UNL d   1      -0.688   1.700  -3.732  0.00  0.00    -0.033 C 
ATOM      6  C   UNL d   1      -1.683   0.740  -4.341  0.00  0.00     0.010 C 
ATOM      7  C   UNL d   1      -2.409   1.482  -5.476  0.00  0.00     0.005 C 
ATOM      8  C   UNL d   1      -1.434   1.974  -6.545  0.00  0.00     0.034 C 
ATOM      9  C   UNL d   1      -0.259   2.701  -5.907  0.00  0.00    -0.075 C 
ATOM     10  C   UNL d   1       0.140   3.907  -6.312  0.00  0.00     0.004 C 
ATOM     11  C   UNL d   1      -1.403   3.015  -3.414  0.00  0.00     0.016 C 
ENDROOT
BRANCH  10  12
ATOM     12  C   UNL d   1      -0.561   4.580  -7.408  0.00  0.00     0.008 C 
ATOM     13  C   UNL d   1      -0.158   5.801  -7.818  0.00  0.00    -0.050 C 
ATOM     14  C   UNL d   1      -0.835   6.510  -8.924  0.00  0.00    -0.061 C 
ATOM     15  C   UNL d   1       1.016   6.508  -7.170  0.00  0.00     0.070 C 
ATOM     16  C   UNL d   1      -1.100   7.992  -8.719  0.00  0.00     0.041 C 
ATOM     17  C   UNL d   1      -1.197   5.878 -10.040  0.00  0.00     0.019 C 
ATOM     18  C   UNL d   1       0.183   8.640  -8.188  0.00  0.00     0.036 C 
ATOM     19  C   UNL d   1       0.609   7.958  -6.888  0.00  0.00     0.122 C 
BRANCH  19  20
ATOM     20  O   UNL d   1       1.718   8.661  -6.323  0.00  0.00    -0.395 OA
ATOM     21  H   UNL d   1       2.039   8.287  -5.492  0.00  0.00     0.210 HD
ENDBRANCH  19  20
ENDBRANCH  10  12
BRANCH   1  22
ATOM     22  C   UNL d   1      -0.627   1.660  -1.229  0.00  0.00    -0.014 C 
ATOM     23  C   UNL d   1      -2.014   1.014  -1.198  0.00  0.00     0.010 C 
BRANCH  22  24
ATOM     24  C   UNL d   1       0.180   1.196  -0.015  0.00  0.00     0.005 C 
BRANCH  24  25
ATOM     25  C   UNL d   1      -0.479   1.715   1.264  0.00  0.00     0.003 C 
BRANCH  25  26
ATOM     26  C   UNL d   1       0.328   1.251   2.478  0.00  0.00     0.037 C 
BRANCH  26  27
ATOM     27  C   UNL d   1      -0.332   1.770   3.757  0.00  0.00     0.051 C 
ATOM     28  C   UNL d   1      -1.758   1.225   3.854  0.00  0.00     0.045 C 
ATOM     29  C   UNL d   1       0.475   1.306   4.972  0.00  0.00     0.045 C 
BRANCH  27  30
ATOM     30  O   UNL d   1      -0.369   3.199   3.728  0.00  0.00    -0.391 OA
ATOM     31  H   UNL d   1       0.503   3.614   3.667  0.00  0.00     0.210 HD
ENDBRANCH  27  30
ENDBRANCH  26  27
ENDBRANCH  25  26
ENDBRANCH  24  25
ENDBRANCH  22  24
ENDBRANCH   1  22
TORSDOF 8
