REMARK  14 active torsions:
REMARK  status: ('A' for Active; 'I' for Inactive)
REMARK    1  A    between atoms: C_2  and  C_3 
REMARK    2  A    between atoms: C_3  and  C_4 
REMARK    3  A    between atoms: C_4  and  C_5 
REMARK    4  A    between atoms: C_5  and  C_6 
REMARK    5  A    between atoms: C_6  and  C_7 
REMARK    6  A    between atoms: C_6  and  O_24 
REMARK    7  A    between atoms: C_8  and  C_9 
REMARK    8  A    between atoms: C_10  and  O_23 
REMARK    9  A    between atoms: C_14  and  C_15 
REMARK   10  A    between atoms: C_15  and  C_16 
REMARK   11  A    between atoms: C_17  and  C_18 
REMARK   12  A    between atoms: C_18  and  C_19 
REMARK   13  A    between atoms: C_19  and  C_20 
REMARK   14  A    between atoms: C_20  and  C_21 
ROOT
ATOM      1  C   UNL d   1      -0.539   1.657  -0.941  0.00  0.00     0.048 C 
ATOM      2  C   UNL d   1      -0.172   1.239   0.505  0.00  0.00     0.133 C 
ATOM      3  C   UNL d   1       1.243   1.846   0.676  0.00  0.00     0.111 C 
ATOM      4  C   UNL d   1       1.176   3.175  -0.056  0.00  0.00     0.134 C 
ATOM      5  O   UNL d   1       1.879   4.136   0.141  0.00  0.00    -0.297 OA
ATOM      6  C   UNL d   1       0.064   3.070  -1.079  0.00  0.00     0.069 C 
ENDROOT
BRANCH   1   7
ATOM      7  C   UNL d   1      -2.036   1.701  -1.116  0.00  0.00    -0.020 C 
ATOM      8  C   UNL d   1      -2.611   0.955  -2.026  0.00  0.00     0.001 C 
BRANCH   8   9
ATOM      9  C   UNL d   1      -4.107   0.999  -2.200  0.00  0.00     0.140 C 
BRANCH   9  10
ATOM     10  C   UNL d   1      -4.441   1.327  -3.657  0.00  0.00     0.036 C 
BRANCH  10  11
ATOM     11  C   UNL d   1      -5.955   1.250  -3.863  0.00  0.00     0.003 C 
BRANCH  11  12
ATOM     12  C   UNL d   1      -6.289   1.577  -5.319  0.00  0.00    -0.000 C 
BRANCH  12  13
ATOM     13  C   UNL d   1      -7.803   1.500  -5.526  0.00  0.00    -0.005 C 
ATOM     14  C   UNL d   1      -8.137   1.828  -6.982  0.00  0.00     0.005 C 
ENDBRANCH  12  13
ENDBRANCH  11  12
ENDBRANCH  10  11
ENDBRANCH   9  10
BRANCH   9  15
ATOM     15  O   UNL d   1      -4.657   2.006  -1.347  0.00  0.00    -0.392 OA
ATOM     16  H   UNL d   1      -4.323   2.896  -1.523  0.00  0.00     0.210 HD
ENDBRANCH   9  15
ENDBRANCH   8   9
ENDBRANCH   1   7
BRANCH   6  17
ATOM     17  C   UNL d   1      -1.006   4.126  -0.798  0.00  0.00     0.040 C 
BRANCH  17  18
ATOM     18  C   UNL d   1      -0.430   5.500  -1.028  0.00  0.00    -0.030 C 
ATOM     19  C   UNL d   1      -1.047   6.345  -1.817  0.00  0.00    -0.031 C 
BRANCH  19  20
ATOM     20  C   UNL d   1      -2.413   6.010  -2.359  0.00  0.00     0.027 C 
BRANCH  20  21
ATOM     21  C   UNL d   1      -3.384   7.146  -2.032  0.00  0.00     0.014 C 
BRANCH  21  22
ATOM     22  C   UNL d   1      -4.770   6.807  -2.583  0.00  0.00     0.113 C 
BRANCH  22  23
ATOM     23  C   UNL d   1      -5.727   7.926  -2.260  0.00  0.00     0.172 C 
ATOM     24  O   UNL d   1      -5.339   8.896  -1.653  0.00  0.00    -0.648 OA
ATOM     25  O   UNL d   1      -7.009   7.846  -2.649  0.00  0.00    -0.648 OA
ENDBRANCH  22  23
ENDBRANCH  21  22
ENDBRANCH  20  21
ENDBRANCH  19  20
ENDBRANCH  17  18
ENDBRANCH   6  17
BRANCH   2  26
ATOM     26  O   UNL d   1      -1.084   1.805   1.449  0.00  0.00    -0.394 OA
ATOM     27  H   UNL d   1      -0.869   1.607   2.371  0.00  0.00     0.210 HD
ENDBRANCH   2  26
TORSDOF 14
