REMARK  4 active torsions:
REMARK  status: ('A' for Active; 'I' for Inactive)
REMARK    1  A    between atoms: C_20  and  C_21 
REMARK    2  A    between atoms: C_20  and  O_25 
REMARK    3  A    between atoms: C_21  and  C_23 
REMARK    4  A    between atoms: C_23  and  O_24 
ROOT
ATOM      1  C   UNL d   1      -4.953   0.460   5.161  0.00  0.00     0.013 C 
ATOM      2  C   UNL d   1      -3.710   1.307   4.879  0.00  0.00     0.025 C 
ATOM      3  C   UNL d   1      -2.782   0.574   3.873  0.00  0.00     0.013 C 
ATOM      4  C   UNL d   1      -3.106   1.263   2.539  0.00  0.00     0.003 C 
ATOM      5  C   UNL d   1      -2.171   1.025   1.396  0.00  0.00     0.003 C 
ATOM      6  C   UNL d   1      -0.687   1.157   1.735  0.00  0.00     0.010 C 
ATOM      7  C   UNL d   1       0.090   0.407   0.648  0.00  0.00     0.036 C 
ATOM      8  C   UNL d   1      -0.496   0.693  -0.712  0.00  0.00    -0.063 C 
ATOM      9  C   UNL d   1       0.062   0.035  -1.742  0.00  0.00     0.058 C 
ATOM     10  C   UNL d   1      -0.488   0.195  -3.103  0.00  0.00     0.172 C 
ATOM     11  O   UNL d   1       0.158  -0.133  -4.095  0.00  0.00    -0.289 OA
ATOM     12  C   UNL d   1      -1.847   0.765  -3.231  0.00  0.00     0.052 C 
ATOM     13  C   UNL d   1      -2.372   1.436  -2.203  0.00  0.00    -0.008 C 
ATOM     14  C   UNL d   1      -1.587   1.686  -0.949  0.00  0.00     0.008 C 
ATOM     15  C   UNL d   1      -2.477   1.967   0.219  0.00  0.00     0.076 C 
ATOM     16  C   UNL d   1      -2.753   3.356   0.672  0.00  0.00     0.133 C 
ATOM     17  O   UNL d   1      -2.275   4.380   0.269  0.00  0.00    -0.297 OA
ATOM     18  C   UNL d   1      -3.800   3.521   1.794  0.00  0.00     0.091 C 
ATOM     19  C   UNL d   1      -3.233   2.739   2.963  0.00  0.00     0.005 C 
ATOM     20  C   UNL d   1      -4.121   2.644   4.211  0.00  0.00     0.131 C 
ATOM     21  C   UNL d   1      -1.895   3.349   3.394  0.00  0.00     0.019 C 
ATOM     22  C   UNL d   1      -0.794   2.952  -1.281  0.00  0.00     0.025 C 
ENDROOT
BRANCH  20  23
ATOM     23  C   UNL d   1      -5.580   2.624   3.855  0.00  0.00     0.185 C 
ATOM     24  O   UNL d   1      -5.939   2.150   2.804  0.00  0.00    -0.292 OA
BRANCH  23  25
ATOM     25  C   UNL d   1      -6.597   3.196   4.809  0.00  0.00     0.245 C 
BRANCH  25  26
ATOM     26  O   UNL d   1      -7.904   3.061   4.249  0.00  0.00    -0.393 OA
ATOM     27  H   UNL d   1      -8.611   3.409   4.811  0.00  0.00     0.209 HD
ENDBRANCH  25  26
ENDBRANCH  23  25
ENDBRANCH  20  23
BRANCH  20  28
ATOM     28  O   UNL d   1      -3.839   3.736   5.090  0.00  0.00    -0.381 OA
ATOM     29  H   UNL d   1      -4.367   3.735   5.900  0.00  0.00     0.211 HD
ENDBRANCH  20  28
TORSDOF 4
