REMARK  6 active torsions:
REMARK  status: ('A' for Active; 'I' for Inactive)
REMARK    1  A    between atoms: C_2  and  C_3 
REMARK    2  A    between atoms: C_3  and  C_4 
REMARK    3  A    between atoms: C_20  and  O_30 
REMARK    4  A    between atoms: C_23  and  C_25 
REMARK    5  A    between atoms: C_25  and  C_27 
REMARK    6  A    between atoms: C_27  and  O_28 
ROOT
ATOM      1  C   UNL d   1      -7.536   6.902   0.551  0.00  0.00     0.262 C 
ATOM      2  O   UNL d   1      -6.817   7.656   1.584  0.00  0.00    -0.352 OA
ATOM      3  C   UNL d   1      -5.852   6.680   1.948  0.00  0.00     0.168 C 
ATOM      4  C   UNL d   1      -4.532   7.009   2.652  0.00  0.00     0.041 C 
ATOM      5  C   UNL d   1      -3.722   5.794   2.114  0.00  0.00     0.004 C 
ATOM      6  C   UNL d   1      -2.272   5.692   2.443  0.00  0.00    -0.001 C 
ATOM      7  C   UNL d   1      -1.456   6.977   2.357  0.00  0.00     0.010 C 
ATOM      8  C   UNL d   1      -0.282   6.745   3.325  0.00  0.00     0.036 C 
ATOM      9  C   UNL d   1       0.430   5.490   2.904  0.00  0.00    -0.064 C 
ATOM     10  C   UNL d   1       1.647   5.271   3.452  0.00  0.00     0.058 C 
ATOM     11  C   UNL d   1       2.325   4.015   3.031  0.00  0.00     0.172 C 
ATOM     12  O   UNL d   1       3.512   3.949   2.772  0.00  0.00    -0.289 OA
ATOM     13  C   UNL d   1       1.403   2.846   2.958  0.00  0.00     0.052 C 
ATOM     14  C   UNL d   1       0.201   3.088   2.409  0.00  0.00    -0.009 C 
ATOM     15  C   UNL d   1      -0.094   4.497   1.900  0.00  0.00     0.004 C 
ATOM     16  C   UNL d   1      -1.599   4.574   1.657  0.00  0.00     0.035 C 
ATOM     17  C   UNL d   1      -1.979   4.491   0.191  0.00  0.00     0.124 C 
ATOM     18  C   UNL d   1      -3.500   4.608  -0.045  0.00  0.00     0.045 C 
ATOM     19  C   UNL d   1      -3.983   5.884   0.584  0.00  0.00     0.004 C 
ATOM     20  C   UNL d   1      -5.361   6.370   0.485  0.00  0.00     0.160 C 
ATOM     21  O   UNL d   1      -6.523   6.179  -0.217  0.00  0.00    -0.339 OA
ATOM     22  C   UNL d   1      -3.171   7.032  -0.005  0.00  0.00     0.019 C 
ATOM     23  C   UNL d   1       0.681   4.706   0.597  0.00  0.00     0.025 C 
ENDROOT
BRANCH  20  24
ATOM     24  C   UNL d   1      -5.031   7.753  -0.024  0.00  0.00     0.188 C 
ATOM     25  O   UNL d   1      -4.676   8.612   0.748  0.00  0.00    -0.292 OA
BRANCH  24  26
ATOM     26  C   UNL d   1      -5.144   8.062  -1.494  0.00  0.00     0.245 C 
BRANCH  26  27
ATOM     27  O   UNL d   1      -4.614   9.365  -1.750  0.00  0.00    -0.393 OA
ATOM     28  H   UNL d   1      -4.654   9.631  -2.678  0.00  0.00     0.209 HD
ENDBRANCH  26  27
ENDBRANCH  24  26
ENDBRANCH  20  24
BRANCH   1  29
ATOM     29  C   UNL d   1      -8.336   7.843  -0.344  0.00  0.00     0.060 C 
BRANCH  29  30
ATOM     30  C   UNL d   1      -9.442   8.508   0.477  0.00  0.00     0.000 C 
ATOM     31  C   UNL d   1     -10.245   9.452  -0.420  0.00  0.00     0.005 C 
ENDBRANCH  29  30
ENDBRANCH   1  29
BRANCH  17  32
ATOM     32  O   UNL d   1      -1.593   3.196  -0.308  0.00  0.00    -0.395 OA
ATOM     33  H   UNL d   1      -1.801   3.057  -1.243  0.00  0.00     0.210 HD
ENDBRANCH  17  32
TORSDOF 6
