REMARK  7 active torsions:
REMARK  status: ('A' for Active; 'I' for Inactive)
REMARK    1  A    between atoms: C_4  and  N_24 
REMARK    2  A    between atoms: N_9  and  C_13 
REMARK    3  A    between atoms: C_14  and  O_23 
REMARK    4  A    between atoms: C_15  and  O_22 
REMARK    5  A    between atoms: C_16  and  C_18 
REMARK    6  A    between atoms: C_18  and  O_19 
REMARK    7  A    between atoms: O_19  and  P_20 
ROOT
ATOM      1  C   UNL d   1      -0.626   3.959   7.711  0.00  0.00     0.183 A 
ATOM      2  N   UNL d   1       0.527   3.985   8.354  0.00  0.00    -0.341 N 
ATOM      3  HN  UNL d   1       0.552   4.295   9.326  1.00  0.00     0.167 HD
ATOM      4  C   UNL d   1       1.656   3.614   7.759  0.00  0.00     0.109 A 
ATOM      5  C   UNL d   1       1.599   3.190   6.420  0.00  0.00     0.116 A 
ATOM      6  C   UNL d   1       0.349   3.181   5.780  0.00  0.00     0.142 A 
ATOM      7  N   UNL d   1      -0.727   3.570   6.458  0.00  0.00    -0.336 N 
ATOM      8  HN  UNL d   1      -1.639   3.566   6.002  1.00  0.00     0.168 HD
ATOM      9  N   UNL d   1       0.580   2.732   4.505  0.00  0.00    -0.297 N 
ATOM     10  C   UNL d   1       1.915   2.480   4.396  0.00  0.00     0.188 A 
ATOM     11  N   UNL d   1       2.512   2.754   5.519  0.00  0.00    -0.346 N 
ATOM     12  HN  UNL d   1       3.512   2.656   5.694  1.00  0.00     0.167 HD
ENDROOT
BRANCH   9  13
ATOM     13  C   UNL d   1      -0.424   2.551   3.454  0.00  0.00     0.262 C 
ATOM     14  O   UNL d   1       0.065   1.646   2.441  0.00  0.00    -0.353 OA
ATOM     15  C   UNL d   1      -0.733   1.918   1.269  0.00  0.00     0.180 C 
ATOM     16  C   UNL d   1      -0.877   3.456   1.238  0.00  0.00     0.182 C 
ATOM     17  C   UNL d   1      -0.669   3.882   2.708  0.00  0.00     0.198 C 
BRANCH  15  18
ATOM     18  C   UNL d   1      -0.017   1.425   0.010  0.00  0.00     0.217 C 
BRANCH  18  19
ATOM     19  O   UNL d   1       0.002  -0.004   0.002  0.00  0.00    -0.280 OA
BRANCH  19  20
ATOM     20  P   UNL d   1       0.678  -0.865  -1.179  0.00  0.00     0.422 P 
ATOM     21  O   UNL d   1       0.095  -0.464  -2.478  0.00  0.00    -0.617 OA
ATOM     22  O   UNL d   1       2.265  -0.598  -1.197  0.00  0.00    -0.617 OA
ATOM     23  O   UNL d   1       0.400  -2.431  -0.927  0.00  0.00    -0.617 OA
ENDBRANCH  19  20
ENDBRANCH  18  19
ENDBRANCH  15  18
BRANCH  16  24
ATOM     24  O   UNL d   1      -2.182   3.828   0.788  0.00  0.00    -0.390 OA
ATOM     25  H   UNL d   1      -2.326   4.783   0.750  0.00  0.00     0.210 HD
ENDBRANCH  16  24
BRANCH  17  26
ATOM     26  O   UNL d   1       0.467   4.741   2.825  0.00  0.00    -0.388 OA
ATOM     27  H   UNL d   1       0.390   5.566   2.326  0.00  0.00     0.210 HD
ENDBRANCH  17  26
ENDBRANCH   9  13
BRANCH   4  28
ATOM     28  N   UNL d   1       2.859   3.643   8.442  0.00  0.00    -0.287 NA
ATOM     29  H   UNL d   1       3.249   2.723   8.471  0.00  0.00     0.125 HD
ATOM     30  H   UNL d   1       2.886   3.938   9.366  0.00  0.00     0.125 HD
ENDBRANCH   4  28
TORSDOF 7
