REMARK  9 active torsions:
REMARK  status: ('A' for Active; 'I' for Inactive)
REMARK    1  A    between atoms: C_3  and  S_10 
REMARK    2  A    between atoms: S_10  and  C_11 
REMARK    3  A    between atoms: C_11  and  C_12 
REMARK    4  A    between atoms: CA_13  and  C_34 
REMARK    5  A    between atoms: CA_16  and  N_19 
REMARK       I    between atoms: N_19  and  C_20 
REMARK    6  A    between atoms: C_20  and  C_22 
REMARK    7  A    between atoms: C_22  and  C_23 
REMARK    8  A    between atoms: C_22  and  O_29 
REMARK    9  A    between atoms: O_29  and  C_30 
ROOT
ATOM      1  C   UNL d   1      -2.683   5.975   0.086  0.00  0.00    -0.027 C 
ATOM      2  CA  UNL d   1      -2.334   5.211  -0.938  0.00  0.00     0.119 C 
ATOM      3  N   UNL d   1      -1.892   3.895  -0.722  0.00  0.00    -0.293 N 
ATOM      4  C   UNL d   1      -1.363   3.333   0.562  0.00  0.00     0.187 C 
ATOM      5  CA  UNL d   1      -1.638   1.969  -0.061  0.00  0.00     0.210 C 
ATOM      6  C   UNL d   1      -1.915   2.711  -1.358  0.00  0.00     0.251 C 
ATOM      7  O   UNL d   1      -2.087   2.370  -2.509  0.00  0.00    -0.271 OA
ATOM      8  S   UNL d   1      -2.549   3.860   1.845  0.00  0.00    -0.136 SA
ATOM      9  C   UNL d   1      -2.633   5.652   1.544  0.00  0.00     0.113 C 
ENDROOT
BRANCH   5  10
ATOM     10  N   UNL d   1      -0.459   1.101  -0.120  0.00  0.00    -0.343 N 
ATOM     11  C   UNL d   1      -0.609  -0.238  -0.155  0.00  0.00     0.252 C 
ATOM     12  O   UNL d   1      -1.720  -0.725  -0.133  0.00  0.00    -0.270 OA
ATOM     13  H   UNL d   1       0.429   1.490  -0.139  0.00  0.00     0.163 HD
BRANCH  11  14
ATOM     14  C   UNL d   1       0.604  -1.130  -0.223  0.00  0.00     0.256 C 
BRANCH  14  15
ATOM     15  C   UNL d   1       1.321  -0.906  -1.529  0.00  0.00    -0.020 A 
ATOM     16  C   UNL d   1       2.442  -0.099  -1.572  0.00  0.00     0.010 A 
ATOM     17  C   UNL d   1       3.100   0.107  -2.770  0.00  0.00     0.001 A 
ATOM     18  C   UNL d   1       2.637  -0.494  -3.925  0.00  0.00     0.000 A 
ATOM     19  C   UNL d   1       1.516  -1.302  -3.882  0.00  0.00     0.001 A 
ATOM     20  C   UNL d   1       0.860  -1.511  -2.683  0.00  0.00     0.010 A 
ENDBRANCH  14  15
BRANCH  14  21
ATOM     21  O   UNL d   1       0.189  -2.518  -0.131  0.00  0.00    -0.308 OA
BRANCH  21  22
ATOM     22  C   UNL d   1       0.116  -3.053   1.099  0.00  0.00     0.399 C 
ATOM     23  O   UNL d   1      -0.224  -4.204   1.238  0.00  0.00    -0.276 OA
ENDBRANCH  21  22
ENDBRANCH  14  21
ENDBRANCH  11  14
ENDBRANCH   5  10
BRANCH   2  24
ATOM     24  C   UNL d   1      -2.409   5.744  -2.310  0.00  0.00     0.227 C 
ATOM     25  O   UNL d   1      -3.409   5.568  -2.977  0.00  0.00    -0.643 OA
ATOM     26  OXT UNL d   1      -1.367   6.427  -2.826  0.00  0.00    -0.643 OA
ENDBRANCH   2  24
BRANCH   1  27
ATOM     27  C   UNL d   1      -3.197   7.347  -0.265  0.00  0.00     0.120 C 
BRANCH  27  28
ATOM     28  S   UNL d   1      -5.003   7.364  -0.145  0.00  0.00    -0.087 SA
BRANCH  28  29
ATOM     29  C   UNL d   1      -5.324   9.037  -0.594  0.00  0.00     0.178 A 
ATOM     30  N   UNL d   1      -6.539   9.629  -0.677  0.00  0.00    -0.259 N 
ATOM     31  C   UNL d   1      -7.845   9.018  -0.416  0.00  0.00     0.181 C 
ATOM     32  N   UNL d   1      -6.278  10.954  -1.068  0.00  0.00    -0.224 N 
ATOM     33  N   UNL d   1      -5.000  11.063  -1.187  0.00  0.00    -0.226 N 
ATOM     34  HN  UNL d   1      -6.969  11.687  -1.227  1.00  0.00     0.210 HD
ATOM     35  N   UNL d   1      -4.428   9.948  -0.906  0.00  0.00    -0.263 N 
ATOM     36  HN  UNL d   1      -4.511  11.915  -1.464  1.00  0.00     0.210 HD
ATOM     37  HN  UNL d   1      -3.420   9.791  -0.923  1.00  0.00     0.190 HD
ENDBRANCH  28  29
ENDBRANCH  27  28
ENDBRANCH   1  27
TORSDOF 9
