REMARK  1 active torsions:
REMARK  status: ('A' for Active; 'I' for Inactive)
REMARK    1  A    between atoms: C_19  and  O_22 
ROOT
ATOM      1  C   UNL d   1       2.955  -1.114   1.497  0.00  0.00     0.020 C 
ATOM      2  C   UNL d   1       2.680  -0.110   0.376  0.00  0.00    -0.016 C 
ATOM      3  C   UNL d   1       3.888  -0.001  -0.548  0.00  0.00     0.022 C 
ATOM      4  C   UNL d   1       4.135  -1.330  -1.264  0.00  0.00     0.084 C 
ATOM      5  C   UNL d   1       2.873  -1.780  -1.951  0.00  0.00     0.149 C 
ATOM      6  O   UNL d   1       2.938  -2.525  -2.908  0.00  0.00    -0.293 OA
ATOM      7  C   UNL d   1       1.570  -1.323  -1.474  0.00  0.00     0.053 C 
ATOM      8  C   UNL d   1       1.461  -0.542  -0.404  0.00  0.00    -0.068 C 
ATOM      9  C   UNL d   1       0.100  -0.075   0.056  0.00  0.00     0.035 C 
ATOM     10  C   UNL d   1       0.048   1.454   0.035  0.00  0.00     0.010 C 
ATOM     11  C   UNL d   1       1.457   2.024   0.029  0.00  0.00    -0.004 C 
ATOM     12  C   UNL d   1       2.365   1.261   0.992  0.00  0.00     0.002 C 
ATOM     13  C   UNL d   1       3.643   2.050   1.242  0.00  0.00     0.007 C 
ATOM     14  C   UNL d   1       3.357   3.356   2.000  0.00  0.00     0.014 C 
ATOM     15  C   UNL d   1       1.968   3.856   1.708  0.00  0.00     0.003 C 
ATOM     16  C   UNL d   1       1.523   3.503   0.275  0.00  0.00     0.002 C 
ATOM     17  C   UNL d   1       0.198   4.271   0.146  0.00  0.00     0.010 C 
ATOM     18  C   UNL d   1       0.451   5.585   0.930  0.00  0.00     0.052 C 
ATOM     19  C   UNL d   1       1.774   5.383   1.714  0.00  0.00     0.128 C 
ATOM     20  C   UNL d   1       2.865   6.090   1.037  0.00  0.00    -0.078 C 
ATOM     21  C   UNL d   1       3.739   6.655   0.495  0.00  0.00     0.015 C 
ATOM     22  C   UNL d   1       0.986   3.297   2.753  0.00  0.00     0.020 C 
ENDROOT
BRANCH  19  23
ATOM     23  O   UNL d   1       1.627   5.846   3.056  0.00  0.00    -0.377 OA
ATOM     24  H   UNL d   1       1.500   6.802   3.131  0.00  0.00     0.211 HD
ENDBRANCH  19  23
TORSDOF 1
