REMARK  4 active torsions:
REMARK  status: ('A' for Active; 'I' for Inactive)
REMARK       I    between atoms: C_2  and  N_4 
REMARK    1  A    between atoms: N_4  and  CA_5 
REMARK    2  A    between atoms: CA_5  and  CB_6 
REMARK    3  A    between atoms: CA_5  and  C_8 
REMARK    4  A    between atoms: CB_6  and  SG_7 
ROOT
ATOM      1  CA  CYS d   1      -1.329   1.940   0.019  0.00  0.00     0.194 C 
ENDROOT
BRANCH   1   2
ATOM      2  N   CYS d   1      -2.430   0.973   0.019  0.00  0.00    -0.346 N 
ATOM      3  C   UNK d   0      -2.875   0.458  -1.145  0.00  0.00     0.214 C 
ATOM      4  C   UNK d   0      -4.007  -0.537  -1.145  0.00  0.00     0.117 C 
ATOM      5  O   UNK d   0      -2.364   0.795  -2.192  0.00  0.00    -0.274 OA
ATOM      6  H   CYS d   1      -2.839   0.703   0.856  0.00  0.00     0.163 HD
ENDBRANCH   1   2
BRANCH   1   7
ATOM      7  CB  CYS d   1      -1.417   2.811   1.273  0.00  0.00     0.106 C 
BRANCH   7   8
ATOM      8  SG  CYS d   1      -3.000   3.697   1.286  0.00  0.00    -0.180 SA
ATOM      9  HG  CYS d   1      -2.960   4.419   2.420  0.00  0.00     0.101 HD
ENDBRANCH   7   8
ENDBRANCH   1   7
BRANCH   1  10
ATOM     10  C   CYS d   1      -0.014   1.204   0.009  0.00  0.00     0.197 C 
ATOM     11  O   CYS d   1       0.002  -0.004   0.002  0.00  0.00    -0.646 OA
ATOM     12  OXT CYS d   1       1.139   1.891   0.001  0.00  0.00    -0.646 OA
ENDBRANCH   1  10
TORSDOF 4
