REMARK  22 active torsions:
REMARK  status: ('A' for Active; 'I' for Inactive)
REMARK    1  A    between atoms: C_2  and  N_60 
REMARK    2  A    between atoms: C_3  and  O_26 
REMARK    3  A    between atoms: C_4  and  O_25 
REMARK    4  A    between atoms: C_5  and  O_14 
REMARK    5  A    between atoms: C_6  and  N_7 
REMARK       I    between atoms: N_7  and  C_8 
REMARK    6  A    between atoms: C_8  and  C_10 
REMARK    7  A    between atoms: C_10  and  C_11 
REMARK    8  A    between atoms: C_10  and  O_13 
REMARK    9  A    between atoms: C_11  and  C_12 
REMARK   10  A    between atoms: C_12  and  N_54 
REMARK   11  A    between atoms: O_14  and  C_15 
REMARK   12  A    between atoms: C_16  and  O_24 
REMARK   13  A    between atoms: C_17  and  N_56 
REMARK   14  A    between atoms: C_18  and  O_23 
REMARK   15  A    between atoms: C_19  and  C_21 
REMARK   16  A    between atoms: C_21  and  O_22 
REMARK   17  A    between atoms: O_26  and  C_27 
REMARK   18  A    between atoms: C_28  and  O_36 
REMARK   19  A    between atoms: C_29  and  O_35 
REMARK   20  A    between atoms: C_30  and  O_34 
REMARK   21  A    between atoms: C_31  and  C_33 
REMARK   22  A    between atoms: C_33  and  N_58 
ROOT
ATOM      1  C   UNL d   1       0.499   1.886  -7.237  0.00  0.00     0.063 C 
ATOM      2  C   UNL d   1      -0.114   2.361  -5.918  0.00  0.00     0.217 C 
ATOM      3  C   UNL d   1      -0.035   1.235  -4.884  0.00  0.00     0.186 C 
ATOM      4  C   UNL d   1      -0.807   0.017  -5.396  0.00  0.00     0.180 C 
ATOM      5  C   UNL d   1      -0.194  -0.458  -6.715  0.00  0.00     0.178 C 
ATOM      6  C   UNL d   1      -0.273   0.668  -7.748  0.00  0.00     0.118 C 
ENDROOT
BRANCH   3   7
ATOM      7  O   UNL d   1      -0.607   1.679  -3.652  0.00  0.00    -0.349 OA
BRANCH   7   8
ATOM      8  C   UNL d   1       0.106   1.246  -2.491  0.00  0.00     0.292 C 
ATOM      9  O   UNL d   1       1.346   1.951  -2.404  0.00  0.00    -0.349 OA
ATOM     10  C   UNL d   1       2.154   1.574  -1.287  0.00  0.00     0.181 C 
ATOM     11  C   UNL d   1       1.399   1.874   0.011  0.00  0.00     0.180 C 
ATOM     12  C   UNL d   1       0.064   1.123   0.001  0.00  0.00     0.183 C 
ATOM     13  C   UNL d   1      -0.731   1.533  -1.242  0.00  0.00     0.204 C 
BRANCH  10  14
ATOM     14  C   UNL d   1       3.462   2.368  -1.312  0.00  0.00     0.264 C 
BRANCH  14  15
ATOM     15  N   UNL d   1       4.169   2.088  -2.574  0.00  0.00    -0.077 N 
ATOM     16  H   UNL d   1       5.054   2.592  -2.598  0.00  0.00     0.274 HD
ATOM     17  H   UNL d   1       4.346   1.089  -2.661  0.00  0.00     0.274 HD
ATOM     18  H   UNL d   1       3.587   2.395  -3.362  0.00  0.00     0.274 HD
ENDBRANCH  14  15
ENDBRANCH  10  14
BRANCH  11  19
ATOM     19  O   UNL d   1       1.156   3.279   0.108  0.00  0.00    -0.390 OA
ATOM     20  H   UNL d   1       0.676   3.541   0.906  0.00  0.00     0.210 HD
ENDBRANCH  11  19
BRANCH  12  21
ATOM     21  O   UNL d   1      -0.678   1.453   1.177  0.00  0.00    -0.390 OA
ATOM     22  H   UNL d   1      -1.538   1.014   1.235  0.00  0.00     0.210 HD
ENDBRANCH  12  21
BRANCH  13  23
ATOM     23  O   UNL d   1      -1.030   2.929  -1.178  0.00  0.00    -0.388 OA
ATOM     24  H   UNL d   1      -1.534   3.259  -1.935  0.00  0.00     0.210 HD
ENDBRANCH  13  23
ENDBRANCH   7   8
ENDBRANCH   3   7
BRANCH   2  25
ATOM     25  N   UNL d   1       0.651   3.520  -5.425  0.00  0.00    -0.072 N 
ATOM     26  H   UNL d   1       0.590   4.287  -6.091  0.00  0.00     0.274 HD
ATOM     27  H   UNL d   1       0.283   3.823  -4.524  0.00  0.00     0.274 HD
ATOM     28  H   UNL d   1       1.635   3.251  -5.311  0.00  0.00     0.274 HD
ENDBRANCH   2  25
BRANCH   4  29
ATOM     29  O   UNL d   1      -0.733  -1.034  -4.431  0.00  0.00    -0.390 OA
ATOM     30  H   UNL d   1      -1.174  -0.832  -3.594  0.00  0.00     0.210 HD
ENDBRANCH   4  29
BRANCH   5  31
ATOM     31  O   UNL d   1       1.173  -0.815  -6.504  0.00  0.00    -0.349 OA
BRANCH  31  32
ATOM     32  C   UNL d   1       1.367  -2.184  -6.145  0.00  0.00     0.291 C 
ATOM     33  O   UNL d   1       1.088  -3.017  -7.273  0.00  0.00    -0.349 OA
ATOM     34  C   UNL d   1       1.227  -4.415  -7.015  0.00  0.00     0.179 C 
ATOM     35  C   UNL d   1       2.672  -4.716  -6.608  0.00  0.00     0.182 C 
ATOM     36  C   UNL d   1       3.034  -3.877  -5.379  0.00  0.00     0.247 C 
ATOM     37  C   UNL d   1       2.818  -2.396  -5.704  0.00  0.00     0.206 C 
BRANCH  34  38
ATOM     38  C   UNL d   1       0.878  -5.204  -8.278  0.00  0.00     0.198 C 
BRANCH  38  39
ATOM     39  O   UNL d   1      -0.504  -5.015  -8.591  0.00  0.00    -0.398 OA
ATOM     40  H   UNL d   1      -0.796  -5.487  -9.383  0.00  0.00     0.209 HD
ENDBRANCH  38  39
ENDBRANCH  34  38
BRANCH  35  41
ATOM     41  O   UNL d   1       3.550  -4.387  -7.686  0.00  0.00    -0.391 OA
ATOM     42  H   UNL d   1       3.378  -4.881  -8.499  0.00  0.00     0.210 HD
ENDBRANCH  35  41
BRANCH  36  43
ATOM     43  N   UNL d   1       4.453  -4.095  -5.048  0.00  0.00    -0.070 N 
ATOM     44  H   UNL d   1       4.706  -3.554  -4.222  0.00  0.00     0.274 HD
ATOM     45  H   UNL d   1       4.623  -5.083  -4.871  0.00  0.00     0.274 HD
ATOM     46  H   UNL d   1       5.034  -3.791  -5.838  0.00  0.00     0.274 HD
ENDBRANCH  36  43
BRANCH  37  47
ATOM     47  O   UNL d   1       3.700  -2.005  -6.758  0.00  0.00    -0.388 OA
ATOM     48  H   UNL d   1       3.614  -1.078  -7.019  0.00  0.00     0.210 HD
ENDBRANCH  37  47
ENDBRANCH  31  32
ENDBRANCH   5  31
BRANCH   6  49
ATOM     49  N   UNL d   1       0.313   0.213  -9.011  0.00  0.00    -0.352 N 
ATOM     50  C   UNL d   1      -0.066   0.780 -10.174  0.00  0.00     0.246 C 
ATOM     51  O   UNL d   1      -0.894   1.667 -10.174  0.00  0.00    -0.271 OA
ATOM     52  H   UNL d   1       0.975  -0.496  -9.011  0.00  0.00     0.163 HD
BRANCH  50  53
ATOM     53  C   UNL d   1       0.537   0.313 -11.473  0.00  0.00     0.211 C 
BRANCH  53  54
ATOM     54  C   UNL d   1       0.128  -1.139 -11.732  0.00  0.00     0.068 C 
BRANCH  54  55
ATOM     55  C   UNL d   1       0.840  -1.653 -12.984  0.00  0.00     0.232 C 
BRANCH  55  56
ATOM     56  N   UNL d   1       0.457  -3.058 -13.211  0.00  0.00    -0.079 N 
ATOM     57  H   UNL d   1      -0.554  -3.133 -13.309  0.00  0.00     0.274 HD
ATOM     58  H   UNL d   1       0.905  -3.410 -14.056  0.00  0.00     0.274 HD
ATOM     59  H   UNL d   1       0.759  -3.624 -12.410  0.00  0.00     0.274 HD
ENDBRANCH  55  56
ENDBRANCH  54  55
ENDBRANCH  53  54
BRANCH  53  60
ATOM     60  O   UNL d   1       0.067   1.137 -12.541  0.00  0.00    -0.386 OA
ATOM     61  H   UNL d   1      -0.894   1.127 -12.652  0.00  0.00     0.210 HD
ENDBRANCH  53  60
ENDBRANCH  50  53
ENDBRANCH   6  49
TORSDOF 22
