REMARK  4 active torsions:
REMARK  status: ('A' for Active; 'I' for Inactive)
REMARK    1  A    between atoms: CG_4  and  CB_7 
REMARK    2  A    between atoms: CB_7  and  CA_8 
REMARK    3  A    between atoms: CA_8  and  C_9 
REMARK    4  A    between atoms: CA_8  and  N_14 
ROOT
ATOM      1  CA  PHE d   1      -1.293  -0.775   0.010  0.00  0.00     0.287 C 
ENDROOT
BRANCH   1   2
ATOM      2  CB  PHE d   1      -1.845  -0.829   1.436  0.00  0.00     0.082 C 
BRANCH   2   3
ATOM      3  CG  PHE d   1      -3.199  -1.492   1.425  0.00  0.00    -0.056 A 
ATOM      4  CD1 PHE d   1      -3.298  -2.862   1.583  0.00  0.00     0.007 A 
ATOM      5  CE1 PHE d   1      -4.539  -3.470   1.574  0.00  0.00     0.001 A 
ATOM      6  CZ  PHE d   1      -5.681  -2.709   1.407  0.00  0.00     0.000 A 
ATOM      7  CE2 PHE d   1      -5.581  -1.339   1.250  0.00  0.00     0.001 A 
ATOM      8  CD2 PHE d   1      -4.341  -0.730   1.264  0.00  0.00     0.007 A 
ENDBRANCH   2   3
ENDBRANCH   1   2
BRANCH   1   9
ATOM      9  C   PHE d   1       0.002  -0.004   0.002  0.00  0.00     0.204 C 
ATOM     10  O   PHE d   1       1.056  -0.594  -0.011  0.00  0.00    -0.646 OA
ATOM     11  OXT PHE d   1      -0.016   1.338   0.009  0.00  0.00    -0.646 OA
ENDBRANCH   1   9
BRANCH   1  12
ATOM     12  N   PHE d   1      -1.042  -2.136  -0.496  0.00  0.00    -0.065 N 
ATOM     13  H1  PHE d   1      -0.386  -2.621   0.114  0.00  0.00     0.275 HD
ATOM     14  H2  PHE d   1      -1.915  -2.659  -0.538  0.00  0.00     0.275 HD
ATOM     15  H3  PHE d   1      -0.641  -2.077  -1.439  0.00  0.00     0.275 HD
ENDBRANCH   1  12
TORSDOF 4
