REMARK  5 active torsions:
REMARK  status: ('A' for Active; 'I' for Inactive)
REMARK    1  A    between atoms: C_4  and  CA_7 
REMARK    2  A    between atoms: CA_7  and  C_8 
REMARK    3  A    between atoms: CA_7  and  N_27 
REMARK       I    between atoms: C_8  and  N_10 
REMARK    4  A    between atoms: N_10  and  CA_11 
REMARK    5  A    between atoms: CA_16  and  C_20 
ROOT
ATOM      1  C   UNL d   1      -0.238   7.320  -2.124  0.00  0.00     0.253 C 
ATOM      2  O   UNL d   1      -0.847   8.153  -1.486  0.00  0.00    -0.271 OA
ATOM      3  N   UNL d   1      -0.090   6.073  -1.635  0.00  0.00    -0.344 N 
ATOM      4  H   UNL d   1       0.397   5.407  -2.144  0.00  0.00     0.163 HD
ENDROOT
BRANCH   3   5
ATOM      5  CA  UNL d   1      -0.664   5.724  -0.333  0.00  0.00     0.200 C 
ATOM      6  C   UNL d   1      -1.883   4.819  -0.425  0.00  0.00     0.250 C 
ATOM      7  N   UNL d   1      -1.162   3.754   0.002  0.00  0.00    -0.302 N 
ATOM      8  O   UNL d   1      -3.041   4.986  -0.744  0.00  0.00    -0.271 OA
ATOM      9  C   UNL d   1       0.045   4.563   0.356  0.00  0.00     0.125 C 
ATOM     10  CA  UNL d   1      -1.220   2.342   0.021  0.00  0.00     0.133 C 
ATOM     11  C   UNL d   1       1.204   3.915  -0.416  0.00  0.00     0.034 C 
ATOM     12  C   UNL d   1       1.292   2.447   0.003  0.00  0.00     0.056 C 
ATOM     13  C   UNL d   1      -0.021   1.732   0.012  0.00  0.00     0.045 C 
ATOM     14 CL   UNL d   1       0.002  -0.004   0.002  0.00  0.00    -0.086 Cl
BRANCH  10  15
ATOM     15  C   UNL d   1      -2.489   1.600   0.053  0.00  0.00     0.228 C 
ATOM     16  O   UNL d   1      -3.545   2.201   0.060  0.00  0.00    -0.643 OA
ATOM     17  OXT UNL d   1      -2.481   0.252   0.075  0.00  0.00    -0.643 OA
ENDBRANCH  10  15
ENDBRANCH   3   5
BRANCH   1  18
ATOM     18  CA  UNL d   1       0.352   7.680  -3.463  0.00  0.00     0.307 C 
BRANCH  18  19
ATOM     19  C   UNL d   1      -0.552   7.182  -4.561  0.00  0.00    -0.019 A 
ATOM     20  C   UNL d   1      -0.253   6.007  -5.224  0.00  0.00     0.010 A 
ATOM     21  C   UNL d   1      -1.083   5.551  -6.230  0.00  0.00     0.001 A 
ATOM     22  C   UNL d   1      -2.212   6.269  -6.574  0.00  0.00     0.000 A 
ATOM     23  C   UNL d   1      -2.512   7.445  -5.911  0.00  0.00     0.001 A 
ATOM     24  C   UNL d   1      -1.685   7.898  -4.901  0.00  0.00     0.010 A 
ENDBRANCH  18  19
BRANCH  18  25
ATOM     25  N   UNL d   1       0.501   9.144  -3.543  0.00  0.00    -0.062 N 
ATOM     26  H1  UNL d   1       0.940   9.402  -4.425  0.00  0.00     0.275 HD
ATOM     27  H2  UNL d   1      -0.411   9.592  -3.473  0.00  0.00     0.275 HD
ATOM     28  H3  UNL d   1       1.093   9.465  -2.768  0.00  0.00     0.275 HD
ENDBRANCH  18  25
ENDBRANCH   1  18
TORSDOF 5
