REMARK  6 active torsions:
REMARK  status: ('A' for Active; 'I' for Inactive)
REMARK    1  A    between atoms: C_2  and  O_4 
REMARK    2  A    between atoms: O_4  and  C_5 
REMARK    3  A    between atoms: C_5  and  C_6 
REMARK    4  A    between atoms: C_6  and  C_8 
REMARK    5  A    between atoms: C_8  and  O_29 
REMARK    6  A    between atoms: C_14  and  O_27 
ROOT
ATOM      1  C   UNL d   1      -2.940  -4.045  -0.768  0.00  0.00     0.128 C 
ATOM      2  C   UNL d   1      -2.212  -4.362  -2.088  0.00  0.00     0.047 C 
ATOM      3  C   UNL d   1      -2.267  -3.092  -2.957  0.00  0.00     0.009 C 
ATOM      4  C   UNL d   1      -2.653  -1.937  -1.996  0.00  0.00     0.002 C 
ATOM      5  C   UNL d   1      -3.502  -2.631  -0.925  0.00  0.00     0.001 C 
ATOM      6  C   UNL d   1      -3.612  -1.853   0.358  0.00  0.00     0.045 C 
ATOM      7  C   UNL d   1      -2.286  -1.293   0.881  0.00  0.00     0.124 C 
ATOM      8  C   UNL d   1      -1.594  -0.471  -0.195  0.00  0.00     0.035 C 
ATOM      9  C   UNL d   1      -1.394  -1.299  -1.460  0.00  0.00    -0.002 C 
ATOM     10  C   UNL d   1      -0.244  -2.280  -1.226  0.00  0.00     0.010 C 
ATOM     11  C   UNL d   1       1.027  -1.433  -1.402  0.00  0.00     0.036 C 
ATOM     12  C   UNL d   1       0.937  -0.225  -0.502  0.00  0.00    -0.064 C 
ATOM     13  C   UNL d   1       2.045   0.535  -0.406  0.00  0.00     0.058 C 
ATOM     14  C   UNL d   1       1.970   1.775   0.401  0.00  0.00     0.172 C 
ATOM     15  O   UNL d   1       2.946   2.232   0.979  0.00  0.00    -0.289 OA
ATOM     16  C   UNL d   1       0.643   2.432   0.467  0.00  0.00     0.052 C 
ATOM     17  C   UNL d   1      -0.447   1.664   0.352  0.00  0.00    -0.009 C 
ATOM     18  C   UNL d   1      -0.298   0.170   0.237  0.00  0.00     0.004 C 
ATOM     19  C   UNL d   1       0.004  -0.285   1.666  0.00  0.00     0.025 C 
ATOM     20  C   UNL d   1      -4.932  -2.770  -1.493  0.00  0.00     0.019 C 
ENDROOT
BRANCH   1  21
ATOM     21  C   UNL d   1      -4.074  -5.026  -0.570  0.00  0.00     0.185 C 
ATOM     22  O   UNL d   1      -4.548  -5.601  -1.520  0.00  0.00    -0.292 OA
BRANCH  21  23
ATOM     23  C   UNL d   1      -4.613  -5.286   0.814  0.00  0.00     0.260 C 
BRANCH  23  24
ATOM     24  O   UNL d   1      -5.689  -6.259   0.739  0.00  0.00    -0.314 OA
BRANCH  24  25
ATOM     25  C   UNL d   1      -6.280  -6.603   1.894  0.00  0.00     0.255 C 
ATOM     26  C   UNL d   1      -7.404  -7.606   1.895  0.00  0.00     0.126 C 
ATOM     27  O   UNL d   1      -5.911  -6.107   2.933  0.00  0.00    -0.266 OA
ENDBRANCH  24  25
ENDBRANCH  23  24
ENDBRANCH  21  23
ENDBRANCH   1  21
BRANCH   1  28
ATOM     28  O   UNL d   1      -2.038  -4.131   0.334  0.00  0.00    -0.381 OA
ATOM     29  H   UNL d   1      -1.661  -5.012   0.465  0.00  0.00     0.211 HD
ENDBRANCH   1  28
BRANCH   7  30
ATOM     30  O   UNL d   1      -2.648  -0.453   1.996  0.00  0.00    -0.395 OA
ATOM     31  H   UNL d   1      -3.094  -0.922   2.714  0.00  0.00     0.210 HD
ENDBRANCH   7  30
TORSDOF 6
