REMARK  5 active torsions:
REMARK  status: ('A' for Active; 'I' for Inactive)
REMARK    1  A    between atoms: C_4  and  O_26 
REMARK    2  A    between atoms: C_10  and  C_11 
REMARK    3  A    between atoms: C_10  and  O_15 
REMARK    4  A    between atoms: C_11  and  C_13 
REMARK    5  A    between atoms: C_13  and  O_14 
ROOT
ATOM      1  C   UNL d   1      -1.675   6.879   1.192  0.00  0.00     0.019 C 
ATOM      2  C   UNL d   1      -2.834   5.888   1.312  0.00  0.00     0.001 C 
ATOM      3  C   UNL d   1      -3.556   5.675  -0.021  0.00  0.00     0.045 C 
ATOM      4  C   UNL d   1      -2.680   4.872  -1.010  0.00  0.00     0.124 C 
ATOM      5  C   UNL d   1      -2.419   3.494  -0.390  0.00  0.00     0.035 C 
ATOM      6  C   UNL d   1      -1.641   3.663   0.915  0.00  0.00    -0.002 C 
ATOM      7  C   UNL d   1      -2.379   4.540   1.898  0.00  0.00     0.002 C 
ATOM      8  C   UNL d   1      -3.690   3.901   2.392  0.00  0.00     0.009 C 
ATOM      9  C   UNL d   1      -4.469   5.095   2.992  0.00  0.00     0.047 C 
ATOM     10  C   UNL d   1      -3.907   6.365   2.327  0.00  0.00     0.128 C 
ATOM     11  C   UNL d   1      -1.357   2.327   1.558  0.00  0.00     0.010 C 
ATOM     12  C   UNL d   1      -0.478   1.477   0.636  0.00  0.00     0.036 C 
ATOM     13  C   UNL d   1      -1.163   1.385  -0.715  0.00  0.00    -0.064 A 
ATOM     14  C   UNL d   1      -1.355   0.192  -1.260  0.00  0.00     0.058 A 
ATOM     15  C   UNL d   1      -2.035   0.063  -2.558  0.00  0.00     0.172 A 
ATOM     16  O   UNL d   1      -2.177  -1.026  -3.081  0.00  0.00    -0.289 OA
ATOM     17  C   UNL d   1      -2.540   1.283  -3.210  0.00  0.00     0.052 A 
ATOM     18  C   UNL d   1      -2.330   2.465  -2.652  0.00  0.00    -0.009 A 
ATOM     19  C   UNL d   1      -1.589   2.663  -1.374  0.00  0.00     0.004 A 
ATOM     20  C   UNL d   1      -0.327   3.461  -1.706  0.00  0.00     0.025 C 
ENDROOT
BRANCH  10  21
ATOM     21  C   UNL d   1      -5.007   7.104   1.609  0.00  0.00     0.184 C 
ATOM     22  O   UNL d   1      -5.973   6.504   1.204  0.00  0.00    -0.292 OA
BRANCH  21  23
ATOM     23  C   UNL d   1      -4.902   8.593   1.399  0.00  0.00     0.245 C 
BRANCH  23  24
ATOM     24  O   UNL d   1      -6.059   9.058   0.700  0.00  0.00    -0.393 OA
ATOM     25  H   UNL d   1      -6.059  10.010   0.529  0.00  0.00     0.209 HD
ENDBRANCH  23  24
ENDBRANCH  21  23
ENDBRANCH  10  21
BRANCH  10  26
ATOM     26  O   UNL d   1      -3.309   7.211   3.311  0.00  0.00    -0.381 OA
ATOM     27  H   UNL d   1      -3.924   7.522   3.989  0.00  0.00     0.211 HD
ENDBRANCH  10  26
BRANCH   4  28
ATOM     28  O   UNL d   1      -1.438   5.546  -1.221  0.00  0.00    -0.395 OA
ATOM     29  H   UNL d   1      -1.529   6.425  -1.612  0.00  0.00     0.210 HD
ENDBRANCH   4  28
TORSDOF 5
