REMARK  7 active torsions:
REMARK  status: ('A' for Active; 'I' for Inactive)
REMARK    1  A    between atoms: C_2  and  C_3 
REMARK    2  A    between atoms: C_9  and  O_32 
REMARK    3  A    between atoms: C_10  and  O_30 
REMARK    4  A    between atoms: C_15  and  C_16 
REMARK    5  A    between atoms: C_16  and  C_17 
REMARK    6  A    between atoms: C_20  and  O_28 
REMARK    7  A    between atoms: C_21  and  O_26 
ROOT
ATOM      1  C   UNL d   1       1.419   2.053  -0.001  0.00  0.00     0.015 C 
ATOM      2  C   UNL d   1       2.175   1.490   1.207  0.00  0.00     0.240 C 
ATOM      3  C   UNL d   1       2.991  -0.562   2.212  0.00  0.00     0.240 C 
ATOM      4  C   UNL d   1       3.244  -2.033   1.878  0.00  0.00     0.067 C 
ATOM      5  C   UNL d   1       1.944  -2.720   1.547  0.00  0.00    -0.045 A 
ATOM      6  C   UNL d   1       1.909  -4.106   1.562  0.00  0.00     0.047 A 
ATOM      7  C   UNL d   1       0.739  -4.780   1.262  0.00  0.00     0.102 A 
ATOM      8  C   UNL d   1      -0.409  -4.060   0.942  0.00  0.00     0.102 A 
ATOM      9  C   UNL d   1      -0.369  -2.677   0.930  0.00  0.00     0.049 A 
ATOM     10  C   UNL d   1       0.828  -2.005   1.220  0.00  0.00    -0.018 A 
ATOM     11  C   UNL d   1       0.798  -0.501   1.211  0.00  0.00     0.222 C 
ATOM     12  C   UNL d   1       0.002  -0.004   0.002  0.00  0.00     0.043 C 
ATOM     13  C   UNL d   1      -0.019   1.528   0.010  0.00  0.00    -0.004 C 
ATOM     14  N   UNL d   1       2.175   0.013   1.121  0.00  0.00    -0.062 N 
ATOM     15  H   UNL d   1       2.578  -0.268   0.220  0.00  0.00     0.280 HD
ENDROOT
BRANCH  13  16
ATOM     16  C   UNL d   1      -0.757   2.035  -1.230  0.00  0.00     0.043 C 
BRANCH  16  17
ATOM     17  C   UNL d   1      -2.225   1.611  -1.158  0.00  0.00     0.219 C 
ATOM     18  C   UNL d   1      -2.980   2.235  -2.303  0.00  0.00    -0.019 A 
ATOM     19  C   UNL d   1      -3.913   1.529  -3.031  0.00  0.00    -0.045 A 
ATOM     20  C   UNL d   1      -2.716   3.561  -2.619  0.00  0.00     0.049 A 
ATOM     21  C   UNL d   1      -4.589   2.144  -4.074  0.00  0.00     0.047 A 
ATOM     22  C   UNL d   1      -4.228   0.086  -2.725  0.00  0.00     0.066 C 
ATOM     23  C   UNL d   1      -4.330   3.465  -4.393  0.00  0.00     0.102 A 
ATOM     24  C   UNL d   1      -3.386   4.179  -3.660  0.00  0.00     0.102 A 
ATOM     25  C   UNL d   1      -3.715  -0.276  -1.331  0.00  0.00     0.237 C 
ATOM     26  N   UNL d   1      -2.306   0.145  -1.225  0.00  0.00    -0.067 N 
ATOM     27  H   UNL d   1      -1.893  -0.258  -0.376  0.00  0.00     0.278 HD
ATOM     28  H   UNL d   1      -1.789  -0.187  -2.047  0.00  0.00     0.278 HD
BRANCH  23  29
ATOM     29  O   UNL d   1      -4.995   4.064  -5.417  0.00  0.00    -0.353 OA
ATOM     30  C   UNL d   1      -5.949   3.269  -6.124  0.00  0.00     0.210 C 
ENDBRANCH  23  29
BRANCH  24  31
ATOM     31  O   UNL d   1      -3.124   5.478  -3.965  0.00  0.00    -0.353 OA
ATOM     32  C   UNL d   1      -2.143   6.146  -3.169  0.00  0.00     0.210 C 
ENDBRANCH  24  31
ENDBRANCH  16  17
ENDBRANCH  13  16
BRANCH   1  33
ATOM     33  C   UNL d   1       2.115   1.609  -1.289  0.00  0.00     0.002 C 
ATOM     34  C   UNL d   1       3.509   2.236  -1.359  0.00  0.00     0.005 C 
ENDBRANCH   1  33
BRANCH   8  35
ATOM     35  O   UNL d   1      -1.564  -4.712   0.644  0.00  0.00    -0.353 OA
ATOM     36  C   UNL d   1      -2.701  -3.907   0.326  0.00  0.00     0.210 C 
ENDBRANCH   8  35
BRANCH   7  37
ATOM     37  O   UNL d   1       0.709  -6.140   1.279  0.00  0.00    -0.353 OA
ATOM     38  C   UNL d   1       1.925  -6.811   1.616  0.00  0.00     0.210 C 
ENDBRANCH   7  37
TORSDOF 7
