REMARK  2 active torsions:
REMARK  status: ('A' for Active; 'I' for Inactive)
REMARK    1  A    between atoms: C_12  and  N_13 
REMARK    2  A    between atoms: N_13  and  N_14 
ROOT
ATOM      1  C   UNL d   1       4.733  -0.018  -0.044  0.00  0.00     0.001 A 
ATOM      2  C   UNL d   1       4.722   1.375  -0.037  0.00  0.00     0.001 A 
ATOM      3  C   UNL d   1       3.548   2.068  -0.022  0.00  0.00     0.016 A 
ATOM      4  C   UNL d   1       2.337   1.369  -0.013  0.00  0.00     0.022 A 
ATOM      5  C   UNL d   1       2.347  -0.050  -0.021  0.00  0.00    -0.005 A 
ATOM      6  C   UNL d   1       3.571  -0.731  -0.037  0.00  0.00     0.014 A 
ATOM      7  C   UNL d   1       1.107  -0.714  -0.012  0.00  0.00     0.119 A 
ATOM      8  N   UNL d   1       0.002  -0.004   0.002  0.00  0.00    -0.309 N 
ATOM      9  HN  UNL d   1      -0.890  -0.499   0.008  1.00  0.00     0.186 HD
ATOM     10  N   UNL d   1      -0.015   1.277   0.009  0.00  0.00    -0.284 N 
ATOM     11  HN  UNL d   1      -0.919   1.749   0.020  1.00  0.00     0.188 HD
ATOM     12  C   UNL d   1       1.080   2.016   0.003  0.00  0.00     0.141 A 
ENDROOT
BRANCH  12  13
ATOM     13  N   UNL d   1       0.998   3.399   0.010  0.00  0.00    -0.308 N 
ATOM     14  H   UNL d   1       1.808   3.932   0.005  0.00  0.00     0.182 HD
BRANCH  13  15
ATOM     15  N   UNL d   1      -0.223   4.010   0.025  0.00  0.00    -0.248 NA
ATOM     16  H   UNL d   1      -0.124   5.015   0.029  0.00  0.00     0.143 HD
ATOM     17  H   UNL d   1      -0.789   3.706  -0.753  0.00  0.00     0.143 HD
ENDBRANCH  13  15
ENDBRANCH  12  13
TORSDOF 2
