REMARK  8 active torsions:
REMARK  status: ('A' for Active; 'I' for Inactive)
REMARK    1  A    between atoms: C_2  and  C_3 
REMARK    2  A    between atoms: C_2  and  C_18 
REMARK    3  A    between atoms: C_3  and  S_4 
REMARK    4  A    between atoms: S_4  and  C_5 
REMARK    5  A    between atoms: C_5  and  C_7 
REMARK    6  A    between atoms: C_7  and  N_9 
REMARK       I    between atoms: N_9  and  C_10 
REMARK    7  A    between atoms: C_10  and  C_12 
REMARK       I    between atoms: C_18  and  N_20 
REMARK    8  A    between atoms: C_24  and  C_25 
ROOT
ATOM      1  S   UNL d   1      -6.774   4.057   1.621  0.00  0.00    -0.090 SA
ENDROOT
BRANCH   1   2
ATOM      2  C   UNL d   1      -5.121   3.481   2.083  0.00  0.00     0.096 C 
BRANCH   2   3
ATOM      3  C   UNL d   1      -4.494   2.733   0.904  0.00  0.00     0.084 C 
ATOM      4  C   UNL d   1      -4.275   3.704  -0.258  0.00  0.00     0.020 C 
BRANCH   3   5
ATOM      5  C   UNL d   1      -3.171   2.148   1.327  0.00  0.00     0.225 C 
ATOM      6  O   UNL d   1      -2.611   2.568   2.317  0.00  0.00    -0.273 OA
ATOM      7  N   UNL d   1      -2.611   1.157   0.605  0.00  0.00    -0.337 N 
ATOM      8  C   UNL d   1      -1.272   0.582   0.830  0.00  0.00     0.188 C 
ATOM      9  C   UNL d   1      -3.236   0.468  -0.539  0.00  0.00     0.127 C 
ATOM     10  C   UNL d   1      -1.056  -0.499  -0.249  0.00  0.00     0.038 C 
ATOM     11  C   UNL d   1      -2.049  -0.083  -1.367  0.00  0.00     0.022 C 
BRANCH   8  12
ATOM     12  C   UNL d   1      -1.201  -0.041   2.201  0.00  0.00     0.196 C 
ATOM     13  O   UNL d   1      -2.161   0.001   2.933  0.00  0.00    -0.646 OA
ATOM     14  O   UNL d   1      -0.072  -0.641   2.607  0.00  0.00    -0.646 OA
ENDBRANCH   8  12
ENDBRANCH   3   5
ENDBRANCH   2   3
ENDBRANCH   1   2
BRANCH   1  15
ATOM     15  C   UNL d   1      -7.233   4.836   3.075  0.00  0.00     0.208 C 
ATOM     16  O   UNL d   1      -6.472   4.857   4.019  0.00  0.00    -0.283 OA
BRANCH  15  17
ATOM     17  C   UNL d   1      -8.584   5.496   3.182  0.00  0.00     0.161 C 
ATOM     18  C   UNL d   1      -8.700   6.593   2.121  0.00  0.00     0.041 C 
BRANCH  17  19
ATOM     19  N   UNL d   1      -8.735   6.087   4.514  0.00  0.00    -0.349 N 
ATOM     20  C   UNL d   1      -9.965   6.276   5.031  0.00  0.00     0.222 C 
ATOM     21  O   UNL d   1     -10.947   5.958   4.394  0.00  0.00    -0.273 OA
ATOM     22  H   UNL d   1      -7.950   6.341   5.024  0.00  0.00     0.163 HD
BRANCH  20  23
ATOM     23  C   UNL d   1     -10.120   6.883   6.402  0.00  0.00     0.078 C 
ATOM     24  C   UNL d   1     -11.607   6.988   6.748  0.00  0.00     0.014 C 
ATOM     25  C   UNL d   1     -11.765   7.604   8.139  0.00  0.00     0.001 C 
ATOM     26  C   UNL d   1     -11.062   6.721   9.171  0.00  0.00     0.000 C 
ATOM     27  C   UNL d   1      -9.575   6.616   8.825  0.00  0.00     0.001 C 
ATOM     28  C   UNL d   1      -9.417   6.000   7.434  0.00  0.00     0.014 C 
ENDBRANCH  20  23
ENDBRANCH  17  19
ENDBRANCH  15  17
ENDBRANCH   1  15
TORSDOF 8
