REMARK  7 active torsions:
REMARK  status: ('A' for Active; 'I' for Inactive)
REMARK    1  A    between atoms: C_2  and  O_4 
REMARK    2  A    between atoms: O_4  and  C_5 
REMARK    3  A    between atoms: C_6  and  N_30 
REMARK    4  A    between atoms: C_19  and  N_39 
REMARK    5  A    between atoms: C_20  and  O_22 
REMARK    6  A    between atoms: N_30  and  C_35 
REMARK    7  A    between atoms: C_35  and  C_36 
ROOT
ATOM      1  C   UNL d   1       0.472   0.172   3.452  0.00  0.00     0.171 C 
ATOM      2  C   UNL d   1       1.812   0.620   2.819  0.00  0.00     0.221 C 
ATOM      3  C   UNL d   1       1.464   1.204   1.421  0.00  0.00     0.042 C 
ATOM      4  C   UNL d   1      -0.025   1.542   1.576  0.00  0.00     0.003 C 
ATOM      5  C   UNL d   1      -0.557   0.295   2.308  0.00  0.00    -0.011 C 
ATOM      6  C   UNL d   1      -1.983   0.490   2.759  0.00  0.00     0.012 C 
ATOM      7  C   UNL d   1      -2.795   1.284   1.722  0.00  0.00     0.007 C 
ATOM      8  C   UNL d   1      -2.165   1.197   0.343  0.00  0.00    -0.002 C 
ATOM      9  C   UNL d   1      -0.798   1.883   0.342  0.00  0.00    -0.005 C 
ATOM     10  C   UNL d   1      -0.088   1.584  -0.973  0.00  0.00     0.006 C 
ATOM     11  C   UNL d   1      -0.935   2.170  -2.114  0.00  0.00     0.006 C 
ATOM     12  C   UNL d   1      -2.195   2.814  -1.548  0.00  0.00    -0.004 C 
ATOM     13  C   UNL d   1      -3.037   1.817  -0.757  0.00  0.00    -0.034 C 
ATOM     14  C   UNL d   1      -4.247   2.509  -0.149  0.00  0.00     0.045 C 
ATOM     15  C   UNL d   1      -5.047   3.333  -1.146  0.00  0.00     0.217 C 
ATOM     16  C   UNL d   1      -4.176   4.230  -2.014  0.00  0.00     0.149 C 
ATOM     17  C   UNL d   1      -3.037   3.438  -2.660  0.00  0.00     0.039 C 
ATOM     18  C   UNL d   1      -3.491   0.666  -1.665  0.00  0.00     0.016 C 
ATOM     19  C   UNL d   1      -0.427  -0.981   1.471  0.00  0.00     0.018 C 
ENDROOT
BRANCH   2  20
ATOM     20  N   UNL d   1       2.727  -0.521   2.685  0.00  0.00    -0.057 N 
ATOM     21  C   UNL d   1       3.944  -0.100   1.967  0.00  0.00     0.238 C 
ATOM     22  C   UNL d   1       5.142  -0.363   2.904  0.00  0.00     0.030 C 
ATOM     23  C   UNL d   1       4.595  -1.442   3.876  0.00  0.00     0.030 C 
ATOM     24  C   UNL d   1       3.116  -1.007   4.026  0.00  0.00     0.238 C 
BRANCH  20  25
ATOM     25  C   UNL d   1       2.065  -1.602   1.943  0.00  0.00     0.264 C 
BRANCH  25  26
ATOM     26  C   UNL d   1       2.970  -2.806   1.895  0.00  0.00    -0.009 C 
ATOM     27  C   UNL d   1       2.539  -3.967   2.324  0.00  0.00     0.008 C 
ENDBRANCH  25  26
ENDBRANCH  20  25
ENDBRANCH   2  20
BRANCH   1  28
ATOM     28  O   UNL d   1       0.111   1.054   4.544  0.00  0.00    -0.313 OA
BRANCH  28  29
ATOM     29  C   UNL d   1       0.463   0.669   5.781  0.00  0.00     0.255 C 
ATOM     30  C   UNL d   1       0.121   1.535   6.965  0.00  0.00     0.126 C 
ATOM     31  O   UNL d   1       1.055  -0.371   5.944  0.00  0.00    -0.266 OA
ENDBRANCH  28  29
ENDBRANCH   1  28
BRANCH  15  32
ATOM     32  N   UNL d   1      -5.892   2.475  -2.004  0.00  0.00    -0.060 N 
ATOM     33  C   UNL d   1      -7.014   3.264  -2.558  0.00  0.00     0.261 C 
ATOM     34  C   UNL d   1      -7.848   2.359  -3.469  0.00  0.00     0.195 C 
ATOM     35  O   UNL d   1      -8.309   1.232  -2.719  0.00  0.00    -0.388 OA
ATOM     36  C   UNL d   1      -7.257   0.451  -2.146  0.00  0.00     0.195 C 
ATOM     37  C   UNL d   1      -6.417   1.337  -1.222  0.00  0.00     0.261 C 
ATOM     38  H   UNL d   1      -5.324   2.114  -2.779  0.00  0.00     0.280 HD
ENDBRANCH  15  32
BRANCH  16  39
ATOM     39  O   UNL d   1      -4.976   4.825  -3.041  0.00  0.00    -0.393 OA
ATOM     40  H   UNL d   1      -4.491   5.434  -3.614  0.00  0.00     0.210 HD
ENDBRANCH  16  39
TORSDOF 7
