REMARK  4 active torsions:
REMARK  status: ('A' for Active; 'I' for Inactive)
REMARK    1  A    between atoms: C_3  and  C_31 
REMARK    2  A    between atoms: N_4  and  N_11 
REMARK    3  A    between atoms: N_13  and  N_15 
REMARK    4  A    between atoms: C_23  and  C_24 
ROOT
ATOM      1  N   UNL d   1       3.490   3.902  -0.011  0.00  0.00    -0.219 N 
ATOM      2  HN  UNL d   1       4.143   4.685  -0.013  1.00  0.00     0.210 HD
ATOM      3  N   UNL d   1       3.917   2.738  -0.021  0.00  0.00    -0.219 N 
ATOM      4  HN  UNL d   1       3.263   1.955  -0.018  1.00  0.00     0.210 HD
ENDROOT
BRANCH   1   5
ATOM      5  N   UNL d   1       2.109   4.142   0.004  0.00  0.00    -0.221 N 
ATOM      6  C   UNL d   1       1.488   5.377   0.016  0.00  0.00     0.092 A 
ATOM      7  C   UNL d   1       0.153   5.157   0.028  0.00  0.00     0.043 A 
ATOM      8  C   UNL d   1      -0.912   6.223   0.044  0.00  0.00     0.071 C 
ATOM      9  N   UNL d   1      -0.069   3.821   0.023  0.00  0.00    -0.309 N 
ATOM     10  C   UNL d   1       1.109   3.189   0.009  0.00  0.00     0.135 A 
ATOM     11  C   UNL d   1      -1.215   3.133   0.031  0.00  0.00     0.099 A 
ATOM     12  C   UNL d   1       1.165   1.797   0.001  0.00  0.00     0.051 A 
ATOM     13  C   UNL d   1      -0.013   1.076   0.008  0.00  0.00     0.005 A 
ATOM     14  C   UNL d   1      -1.220   1.771   0.017  0.00  0.00     0.018 A 
BRANCH   6  15
ATOM     15  C   UNL d   1       2.159   6.695   0.016  0.00  0.00    -0.005 A 
ATOM     16  C   UNL d   1       3.245   6.929   0.860  0.00  0.00     0.014 A 
ATOM     17  C   UNL d   1       3.866   8.161   0.855  0.00  0.00     0.001 A 
ATOM     18  C   UNL d   1       3.414   9.164   0.015  0.00  0.00     0.000 A 
ATOM     19  C   UNL d   1       2.338   8.938  -0.824  0.00  0.00     0.001 A 
ATOM     20  C   UNL d   1       1.711   7.709  -0.833  0.00  0.00     0.014 A 
ENDBRANCH   6  15
ENDBRANCH   1   5
BRANCH   3  21
ATOM     21  N   UNL d   1       5.297   2.498  -0.035  0.00  0.00    -0.221 N 
ATOM     22  C   UNL d   1       5.918   1.262  -0.042  0.00  0.00     0.092 A 
ATOM     23  C   UNL d   1       7.253   1.483  -0.058  0.00  0.00     0.043 A 
ATOM     24  N   UNL d   1       7.475   2.818  -0.053  0.00  0.00    -0.309 N 
ATOM     25  C   UNL d   1       8.318   0.417  -0.073  0.00  0.00     0.071 C 
ATOM     26  C   UNL d   1       6.297   3.450  -0.039  0.00  0.00     0.135 A 
ATOM     27  C   UNL d   1       8.621   3.507  -0.060  0.00  0.00     0.099 A 
ATOM     28  C   UNL d   1       6.241   4.843  -0.031  0.00  0.00     0.051 A 
ATOM     29  C   UNL d   1       7.419   5.564  -0.038  0.00  0.00     0.005 A 
ATOM     30  C   UNL d   1       8.626   4.869  -0.053  0.00  0.00     0.018 A 
BRANCH  22  31
ATOM     31  C   UNL d   1       5.247  -0.056  -0.036  0.00  0.00    -0.005 A 
ATOM     32  C   UNL d   1       4.177  -0.294   0.828  0.00  0.00     0.014 A 
ATOM     33  C   UNL d   1       3.556  -1.526   0.829  0.00  0.00     0.001 A 
ATOM     34  C   UNL d   1       3.992  -2.524  -0.024  0.00  0.00     0.000 A 
ATOM     35  C   UNL d   1       5.052  -2.295  -0.883  0.00  0.00     0.001 A 
ATOM     36  C   UNL d   1       5.678  -1.065  -0.897  0.00  0.00     0.014 A 
ENDBRANCH  22  31
ENDBRANCH   3  21
TORSDOF 4
