REMARK  1 active torsions:
REMARK  status: ('A' for Active; 'I' for Inactive)
REMARK    1  A    between atoms: C_16  and  O_17 
ROOT
ATOM      1  C   UNL d   1      -0.370   7.105   0.899  0.00  0.00     0.018 C 
ATOM      2  C   UNL d   1      -0.597   5.627   1.228  0.00  0.00     0.052 C 
ATOM      3  C   UNL d   1      -1.569   5.016   0.226  0.00  0.00     0.021 C 
ATOM      4  C   UNL d   1      -1.502   3.489   0.193  0.00  0.00    -0.035 C 
ATOM      5  C   UNL d   1      -0.747   2.900   1.371  0.00  0.00     0.001 C 
ATOM      6  C   UNL d   1      -0.712   1.370   1.281  0.00  0.00     0.006 C 
ATOM      7  C   UNL d   1      -0.027   0.960  -0.031  0.00  0.00     0.006 C 
ATOM      8  C   UNL d   1      -0.828   1.494  -1.205  0.00  0.00    -0.005 C 
ATOM      9  C   UNL d   1      -0.958   3.019  -1.148  0.00  0.00    -0.002 C 
ATOM     10  C   UNL d   1       0.334   3.720  -1.538  0.00  0.00     0.007 C 
ATOM     11  C   UNL d   1       0.765   3.313  -2.960  0.00  0.00     0.012 C 
ATOM     12  C   UNL d   1       0.973   1.818  -2.988  0.00  0.00    -0.014 C 
ATOM     13  C   UNL d   1      -0.320   1.101  -2.559  0.00  0.00     0.001 C 
ATOM     14  C   UNL d   1       0.036  -0.368  -2.818  0.00  0.00     0.008 C 
ATOM     15  C   UNL d   1       0.782  -0.291  -4.182  0.00  0.00     0.033 C 
ATOM     16  C   UNL d   1       1.183   1.194  -4.383  0.00  0.00     0.126 C 
ATOM     17  C   UNL d   1       2.190   1.433  -2.149  0.00  0.00     0.018 C 
ATOM     18  C   UNL d   1       0.692   3.409   1.472  0.00  0.00     0.084 C 
ATOM     19  C   UNL d   1       0.717   4.884   1.141  0.00  0.00     0.131 C 
ATOM     20  O   UNL d   1       1.735   5.441   0.819  0.00  0.00    -0.298 OA
ATOM     21  C   UNL d   1      -2.973   3.011   0.292  0.00  0.00     0.016 C 
ENDROOT
BRANCH  16  22
ATOM     22  O   UNL d   1       0.326   1.822  -5.333  0.00  0.00    -0.395 OA
ATOM     23  H   UNL d   1       0.412   1.473  -6.231  0.00  0.00     0.210 HD
ENDBRANCH  16  22
TORSDOF 1
