REMARK  8 active torsions:
REMARK  status: ('A' for Active; 'I' for Inactive)
REMARK    1  A    between atoms: C_2  and  C_3 
REMARK    2  A    between atoms: C_2  and  C_10 
REMARK    3  A    between atoms: C_3  and  C_4 
REMARK    4  A    between atoms: C_4  and  C_5 
REMARK    5  A    between atoms: C_5  and  C_6 
REMARK    6  A    between atoms: C_6  and  O_9 
REMARK    7  A    between atoms: C_19  and  C_20 
REMARK    8  A    between atoms: C_23  and  O_28 
ROOT
ATOM      1  C   UNL d   1       0.387  -2.294  -1.503  0.00  0.00    -0.002 C 
ATOM      2  C   UNL d   1      -0.978  -2.527  -0.804  0.00  0.00     0.006 C 
ATOM      3  C   UNL d   1      -1.581  -1.117  -0.544  0.00  0.00     0.010 C 
ATOM      4  C   UNL d   1      -0.342  -0.220  -0.515  0.00  0.00     0.023 C 
ATOM      5  C   UNL d   1       0.474  -0.790  -1.710  0.00  0.00    -0.033 C 
ATOM      6  C   UNL d   1       1.838  -0.140  -1.683  0.00  0.00     0.010 C 
ATOM      7  C   UNL d   1       1.649   1.347  -2.025  0.00  0.00     0.005 C 
ATOM      8  C   UNL d   1       0.717   2.043  -1.034  0.00  0.00     0.034 C 
ATOM      9  C   UNL d   1      -0.554   1.231  -0.830  0.00  0.00    -0.075 C 
ATOM     10  C   UNL d   1      -1.769   1.770  -0.929  0.00  0.00     0.004 C 
ATOM     11  C   UNL d   1      -0.225  -0.418  -3.019  0.00  0.00     0.016 C 
ENDROOT
BRANCH  10  12
ATOM     12  C   UNL d   1      -1.915   3.194  -1.239  0.00  0.00     0.008 C 
ATOM     13  C   UNL d   1      -3.145   3.740  -1.339  0.00  0.00    -0.050 C 
ATOM     14  C   UNL d   1      -3.334   5.174  -1.644  0.00  0.00    -0.061 C 
ATOM     15  C   UNL d   1      -4.399   2.914  -1.139  0.00  0.00     0.070 C 
ATOM     16  C   UNL d   1      -4.415   5.516  -2.655  0.00  0.00     0.041 C 
ATOM     17  C   UNL d   1      -2.591   6.115  -1.063  0.00  0.00     0.019 C 
ATOM     18  C   UNL d   1      -5.680   4.732  -2.290  0.00  0.00     0.036 C 
ATOM     19  C   UNL d   1      -5.375   3.234  -2.275  0.00  0.00     0.122 C 
BRANCH  19  20
ATOM     20  O   UNL d   1      -6.589   2.506  -2.079  0.00  0.00    -0.395 OA
ATOM     21  H   UNL d   1      -6.474   1.546  -2.063  0.00  0.00     0.210 HD
ENDBRANCH  19  20
ENDBRANCH  10  12
BRANCH   1  22
ATOM     22  C   UNL d   1       1.531  -2.777  -0.610  0.00  0.00    -0.014 C 
ATOM     23  C   UNL d   1       1.415  -2.119   0.767  0.00  0.00     0.010 C 
BRANCH  22  24
ATOM     24  C   UNL d   1       1.451  -4.298  -0.456  0.00  0.00     0.005 C 
BRANCH  24  25
ATOM     25  C   UNL d   1       2.679  -4.798   0.306  0.00  0.00     0.003 C 
BRANCH  25  26
ATOM     26  C   UNL d   1       2.599  -6.319   0.460  0.00  0.00     0.037 C 
BRANCH  26  27
ATOM     27  C   UNL d   1       3.828  -6.819   1.223  0.00  0.00     0.051 C 
ATOM     28  C   UNL d   1       3.869  -6.169   2.607  0.00  0.00     0.045 C 
ATOM     29  C   UNL d   1       3.748  -8.340   1.376  0.00  0.00     0.045 C 
BRANCH  27  30
ATOM     30  O   UNL d   1       5.011  -6.475   0.499  0.00  0.00    -0.391 OA
ATOM     31  H   UNL d   1       5.053  -6.854  -0.390  0.00  0.00     0.210 HD
ENDBRANCH  27  30
ENDBRANCH  26  27
ENDBRANCH  25  26
ENDBRANCH  24  25
ENDBRANCH  22  24
ENDBRANCH   1  22
TORSDOF 8
