REMARK  2 active torsions:
REMARK  status: ('A' for Active; 'I' for Inactive)
REMARK    1  A    between atoms: C_10  and  O_13 
REMARK    2  A    between atoms: C_18  and  O_22 
ROOT
ATOM      1  C   UNL d   1       4.917   3.972  -0.836  0.00  0.00     0.020 C 
ATOM      2  C   UNL d   1       3.439   3.575  -0.836  0.00  0.00     0.003 C 
ATOM      3  C   UNL d   1       3.281   2.238  -1.521  0.00  0.00     0.014 C 
ATOM      4  C   UNL d   1       1.828   1.792  -1.475  0.00  0.00     0.006 C 
ATOM      5  C   UNL d   1       1.425   1.620  -0.003  0.00  0.00    -0.002 C 
ATOM      6  C   UNL d   1       1.513   2.957   0.710  0.00  0.00    -0.005 C 
ATOM      7  C   UNL d   1       2.914   3.575   0.607  0.00  0.00     0.002 C 
ATOM      8  C   UNL d   1       2.751   5.082   0.941  0.00  0.00     0.010 C 
ATOM      9  C   UNL d   1       2.527   5.783  -0.440  0.00  0.00     0.052 C 
ATOM     10  C   UNL d   1       2.615   4.681  -1.521  0.00  0.00     0.128 C 
ATOM     11  C   UNL d   1       3.311   5.181  -2.717  0.00  0.00    -0.078 C 
ATOM     12  C   UNL d   1       3.866   5.580  -3.672  0.00  0.00     0.015 C 
ATOM     13  C   UNL d   1       1.173   2.856   2.195  0.00  0.00     0.009 C 
ATOM     14  C   UNL d   1       0.125   1.791   2.485  0.00  0.00     0.034 C 
ATOM     15  C   UNL d   1      -0.715   1.576   1.248  0.00  0.00    -0.077 C 
ATOM     16  C   UNL d   1      -1.990   1.811   1.262  0.00  0.00     0.007 C 
ATOM     17  C   UNL d   1      -2.911   1.644   0.101  0.00  0.00     0.141 C 
ATOM     18  C   UNL d   1      -2.217   1.096  -1.136  0.00  0.00     0.036 C 
ATOM     19  C   UNL d   1      -0.762   1.597  -1.225  0.00  0.00     0.012 C 
ATOM     20  C   UNL d   1      -0.013   1.086   0.008  0.00  0.00     0.019 C 
ENDROOT
BRANCH  10  21
ATOM     21  O   UNL d   1       1.312   4.201  -1.858  0.00  0.00    -0.377 OA
ATOM     22  H   UNL d   1       0.751   4.859  -2.292  0.00  0.00     0.211 HD
ENDBRANCH  10  21
BRANCH  17  23
ATOM     23  O   UNL d   1      -3.483   2.914  -0.218  0.00  0.00    -0.392 OA
ATOM     24  H   UNL d   1      -3.992   3.309   0.503  0.00  0.00     0.210 HD
ENDBRANCH  17  23
TORSDOF 2
