REMARK  6 active torsions:
REMARK  status: ('A' for Active; 'I' for Inactive)
REMARK    1  A    between atoms: C_7  and  O_9 
REMARK    2  A    between atoms: O_9  and  C_10 
REMARK    3  A    between atoms: C_10  and  C_12 
REMARK    4  A    between atoms: C_12  and  C_13 
REMARK    5  A    between atoms: C_12  and  C_15 
REMARK    6  A    between atoms: C_13  and  O_14 
ROOT
ATOM      1  C   UNL d   1       2.508   4.811  -1.226  0.00  0.00     0.270 C 
ATOM      2  O   UNL d   1       1.591   4.808  -2.013  0.00  0.00    -0.264 OA
ENDROOT
BRANCH   1   3
ATOM      3  O   UNL d   1       3.577   5.593  -1.444  0.00  0.00    -0.315 OA
BRANCH   3   4
ATOM      4  C   UNL d   1       3.563   6.408  -2.645  0.00  0.00     0.136 C 
ATOM      5  C   UNL d   1       2.919   7.762  -2.335  0.00  0.00     0.065 C 
ATOM      6  C   UNL d   1       3.820   8.528  -1.353  0.00  0.00     0.190 C 
ATOM      7  C   UNL d   1       4.204   7.560  -0.210  0.00  0.00     0.035 C 
ATOM      8  N   UNL d   1       5.091   8.758  -2.045  0.00  0.00    -0.066 N 
ATOM      9  C   UNL d   1       5.485   6.855  -0.703  0.00  0.00     0.035 C 
ATOM     10  C   UNL d   1       5.759   7.462  -2.098  0.00  0.00     0.190 C 
ATOM     11  C   UNL d   1       4.999   6.618  -3.134  0.00  0.00     0.065 C 
ATOM     12  C   UNL d   1       5.923   9.757  -1.298  0.00  0.00     0.270 C 
ATOM     13  H   UNL d   1       4.919   9.105  -2.995  0.00  0.00     0.280 HD
ENDBRANCH   3   4
ENDBRANCH   1   3
BRANCH   1  14
ATOM     14  C   UNL d   1       2.451   3.937   0.000  0.00  0.00     0.142 C 
BRANCH  14  15
ATOM     15  C   UNL d   1       2.532   4.811   1.254  0.00  0.00     0.183 C 
BRANCH  15  16
ATOM     16  O   UNL d   1       2.595   3.977   2.412  0.00  0.00    -0.400 OA
ATOM     17  H   UNL d   1       2.648   4.465   3.246  0.00  0.00     0.209 HD
ENDBRANCH  15  16
ENDBRANCH  14  15
BRANCH  14  18
ATOM     18  C   UNL d   1       1.156   3.165   0.008  0.00  0.00    -0.043 A 
ATOM     19  C   UNL d   1      -0.050   3.840   0.022  0.00  0.00     0.008 A 
ATOM     20  C   UNL d   1      -1.238   3.133   0.029  0.00  0.00     0.001 A 
ATOM     21  C   UNL d   1      -1.219   1.751   0.017  0.00  0.00     0.000 A 
ATOM     22  C   UNL d   1      -0.013   1.076   0.008  0.00  0.00     0.001 A 
ATOM     23  C   UNL d   1       1.175   1.783   0.000  0.00  0.00     0.008 A 
ENDBRANCH  14  18
ENDBRANCH   1  14
TORSDOF 6
