REMARK  2 active torsions:
REMARK  status: ('A' for Active; 'I' for Inactive)
REMARK    1  A    between atoms: C_11  and  C_12 
REMARK    2  A    between atoms: C_11  and  O_19 
ROOT
ATOM      1  C   UNL d   1      -4.224   4.333   3.927  0.00  0.00     0.001 A 
ATOM      2  C   UNL d   1      -3.015   4.971   3.714  0.00  0.00     0.001 A 
ATOM      3  C   UNL d   1      -2.387   4.882   2.484  0.00  0.00     0.013 A 
ATOM      4  C   UNL d   1      -2.967   4.156   1.467  0.00  0.00     0.016 A 
ATOM      5  C   UNL d   1      -4.184   3.512   1.673  0.00  0.00     0.019 A 
ATOM      6  C   UNL d   1      -4.813   3.604   2.914  0.00  0.00     0.016 A 
ATOM      7  C   UNL d   1      -4.575   2.809   0.418  0.00  0.00     0.113 A 
ATOM      8  C   UNL d   1      -5.332   1.673  -1.409  0.00  0.00     0.141 A 
ATOM      9  C   UNL d   1      -3.989   2.333  -1.772  0.00  0.00     0.148 A 
ATOM     10  N   UNL d   1      -3.608   3.026  -0.530  0.00  0.00    -0.325 N 
ATOM     11  C   UNL d   1      -2.553   3.868   0.047  0.00  0.00     0.194 A 
ATOM     12  N   UNL d   1      -5.563   2.062  -0.010  0.00  0.00    -0.374 N 
ATOM     13  H   UNL d   1      -6.379   1.789   0.549  0.00  0.00     0.161 HD
ENDROOT
BRANCH  11  14
ATOM     14  C   UNL d   1      -1.238   3.133   0.031  0.00  0.00     0.002 A 
ATOM     15  C   UNL d   1      -0.050   3.841   0.023  0.00  0.00     0.014 A 
ATOM     16  C   UNL d   1       1.156   3.167   0.008  0.00  0.00     0.024 A 
ATOM     17  C   UNL d   1       1.176   1.784   0.000  0.00  0.00     0.034 A 
ATOM     18  C   UNL d   1      -0.013   1.076   0.008  0.00  0.00     0.024 A 
ATOM     19 CL   UNL d   1       2.691   0.937  -0.018  0.00  0.00    -0.084 Cl
ATOM     20  C   UNL d   1      -1.219   1.751   0.017  0.00  0.00     0.014 A 
ENDBRANCH  11  14
BRANCH  11  21
ATOM     21  O   UNL d   1      -2.442   5.088  -0.689  0.00  0.00    -0.362 OA
ATOM     22  H   UNL d   1      -1.768   5.693  -0.348  0.00  0.00     0.213 HD
ENDBRANCH  11  21
TORSDOF 2
