REMARK  19 active torsions:
REMARK  status: ('A' for Active; 'I' for Inactive)
REMARK    1  A    between atoms: C_2  and  C_3 
REMARK    2  A    between atoms: C_3  and  C_4 
REMARK    3  A    between atoms: C_4  and  C_5 
REMARK    4  A    between atoms: C_5  and  C_6 
REMARK    5  A    between atoms: C_6  and  C_7 
REMARK    6  A    between atoms: C_6  and  C_9 
REMARK    7  A    between atoms: C_9  and  O_10 
REMARK    8  A    between atoms: O_10  and  C_11 
REMARK    9  A    between atoms: C_11  and  C_13 
REMARK   10  A    between atoms: C_13  and  C_14 
REMARK   11  A    between atoms: C_14  and  C_15 
REMARK   12  A    between atoms: C_14  and  S_26 
REMARK   13  A    between atoms: C_15  and  O_17 
REMARK   14  A    between atoms: O_17  and  C_18 
REMARK   15  A    between atoms: C_18  and  C_19 
REMARK   16  A    between atoms: C_19  and  C_20 
REMARK   17  A    between atoms: C_19  and  C_22 
REMARK   18  A    between atoms: C_22  and  C_23 
REMARK   19  A    between atoms: C_23  and  C_24 
ROOT
ATOM      1  C   UNL d   1       0.643   2.401   7.112  0.00  0.00     0.238 C 
ENDROOT
BRANCH   1   2
ATOM      2  C   UNL d   1      -0.488   2.837   6.179  0.00  0.00     0.144 C 
BRANCH   2   3
ATOM      3  C   UNL d   1      -0.040   2.699   4.747  0.00  0.00     0.260 C 
ATOM      4  O   UNL d   1       1.071   2.293   4.498  0.00  0.00    -0.265 OA
BRANCH   3   5
ATOM      5  O   UNL d   1      -0.874   3.027   3.748  0.00  0.00    -0.321 OA
BRANCH   5   6
ATOM      6  C   UNL d   1      -0.375   2.869   2.393  0.00  0.00     0.183 C 
BRANCH   6   7
ATOM      7  C   UNL d   1      -1.459   3.288   1.398  0.00  0.00     0.010 C 
BRANCH   7   8
ATOM      8  C   UNL d   1      -0.980   3.005  -0.027  0.00  0.00     0.007 C 
BRANCH   8   9
ATOM      9  C   UNL d   1      -0.831   1.495  -0.224  0.00  0.00     0.000 C 
BRANCH   9  10
ATOM     10  C   UNL d   1      -0.478   1.204  -1.684  0.00  0.00    -0.000 C 
BRANCH  10  11
ATOM     11  C   UNL d   1      -0.330  -0.306  -1.882  0.00  0.00    -0.005 C 
ATOM     12  C   UNL d   1       0.023  -0.598  -3.342  0.00  0.00     0.005 C 
ENDBRANCH  10  11
ENDBRANCH   9  10
ENDBRANCH   8   9
ENDBRANCH   7   8
BRANCH   7  13
ATOM     13  C   UNL d   1      -1.742   4.784   1.553  0.00  0.00     0.002 C 
ATOM     14  C   UNL d   1      -2.923   5.175   0.662  0.00  0.00     0.005 C 
ENDBRANCH   7  13
ENDBRANCH   6   7
ENDBRANCH   5   6
ENDBRANCH   3   5
ENDBRANCH   2   3
ENDBRANCH   1   2
BRANCH   1  15
ATOM     15  C   UNL d   1       0.240   2.654   8.542  0.00  0.00     0.280 C 
ATOM     16  O   UNL d   1      -0.912   2.515   8.879  0.00  0.00    -0.264 OA
BRANCH  15  17
ATOM     17  O   UNL d   1       1.162   3.034   9.441  0.00  0.00    -0.320 OA
BRANCH  17  18
ATOM     18  C   UNL d   1       0.703   3.260  10.800  0.00  0.00     0.183 C 
BRANCH  18  19
ATOM     19  C   UNL d   1       1.885   3.682  11.674  0.00  0.00     0.010 C 
BRANCH  19  20
ATOM     20  C   UNL d   1       2.389   5.054  11.222  0.00  0.00     0.002 C 
ATOM     21  C   UNL d   1       2.987   4.940   9.818  0.00  0.00     0.005 C 
ENDBRANCH  19  20
BRANCH  19  22
ATOM     22  C   UNL d   1       1.437   3.760  13.135  0.00  0.00     0.007 C 
BRANCH  22  23
ATOM     23  C   UNL d   1       2.649   4.038  14.026  0.00  0.00     0.000 C 
BRANCH  23  24
ATOM     24  C   UNL d   1       2.224   3.987  15.495  0.00  0.00    -0.005 C 
ATOM     25  C   UNL d   1       3.437   4.265  16.387  0.00  0.00     0.005 C 
ENDBRANCH  23  24
ENDBRANCH  22  23
ENDBRANCH  19  22
ENDBRANCH  18  19
ENDBRANCH  17  18
ENDBRANCH  15  17
ENDBRANCH   1  15
BRANCH   1  26
ATOM     26  S   UNL d   1       0.970   0.632   6.880  0.00  0.00     0.116 S 
ATOM     27  O   UNL d   1       1.176   0.349   5.503  0.00  0.00    -0.594 OA
ATOM     28  O   UNL d   1       1.890   0.171   7.860  0.00  0.00    -0.594 OA
ATOM     29  O   UNL d   1      -0.343  -0.057   7.226  0.00  0.00    -0.594 OA
ENDBRANCH   1  26
TORSDOF 19
