REMARK  4 active torsions:
REMARK  status: ('A' for Active; 'I' for Inactive)
REMARK    1  A    between atoms: C_2  and  C_3 
REMARK    2  A    between atoms: C_2  and  O_8 
REMARK    3  A    between atoms: C_3  and  N_4 
REMARK    4  A    between atoms: O_8  and  C_9 
REMARK       I    between atoms: C_9  and  N_11 
ROOT
ATOM      1  C   UNL d   1       2.382  -1.539  -2.475  0.00  0.00     0.042 C 
ATOM      2  C   UNL d   1       1.945  -0.861  -1.175  0.00  0.00     0.155 C 
ENDROOT
BRANCH   2   3
ATOM      3  C   UNL d   1       0.417  -0.845  -1.097  0.00  0.00     0.268 C 
BRANCH   3   4
ATOM      4  N   UNL d   1      -0.006  -0.058   0.069  0.00  0.00    -0.076 N 
ATOM      5  C   UNL d   1       0.597   1.280   0.001  0.00  0.00     0.271 C 
ATOM      6  C   UNL d   1       0.432  -0.731   1.299  0.00  0.00     0.271 C 
ATOM      7  C   UNL d   1      -1.470   0.064   0.073  0.00  0.00     0.271 C 
ENDBRANCH   3   4
ENDBRANCH   2   3
BRANCH   2   8
ATOM      8  O   UNL d   1       2.480  -1.594  -0.043  0.00  0.00    -0.297 OA
BRANCH   8   9
ATOM      9  C   UNL d   1       3.692  -1.221   0.410  0.00  0.00     0.358 C 
ATOM     10  O   UNL d   1       4.286  -0.306  -0.127  0.00  0.00    -0.239 OA
ATOM     11  N   UNL d   1       4.247  -1.861   1.458  0.00  0.00    -0.346 N 
ATOM     12  H   UNL d   1       3.773  -2.590   1.887  0.00  0.00     0.161 HD
ATOM     13  H   UNL d   1       5.120  -1.591   1.784  0.00  0.00     0.161 HD
ENDBRANCH   8   9
ENDBRANCH   2   8
TORSDOF 4
