REMARK  17 active torsions:
REMARK  status: ('A' for Active; 'I' for Inactive)
REMARK    1  A    between atoms: C_2  and  N_51 
REMARK    2  A    between atoms: C_3  and  O_19 
REMARK    3  A    between atoms: C_4  and  O_18 
REMARK    4  A    between atoms: C_5  and  O_7 
REMARK    5  A    between atoms: C_6  and  N_45 
REMARK    6  A    between atoms: O_7  and  C_8 
REMARK    7  A    between atoms: C_9  and  O_17 
REMARK    8  A    between atoms: C_10  and  N_47 
REMARK    9  A    between atoms: C_11  and  O_16 
REMARK   10  A    between atoms: C_12  and  C_14 
REMARK   11  A    between atoms: C_14  and  O_15 
REMARK   12  A    between atoms: O_19  and  C_20 
REMARK   13  A    between atoms: C_21  and  N_49 
REMARK   14  A    between atoms: C_22  and  O_29 
REMARK   15  A    between atoms: C_23  and  O_28 
REMARK   16  A    between atoms: C_24  and  C_26 
REMARK   17  A    between atoms: C_26  and  O_27 
ROOT
ATOM      1  C   UNL d   1       4.081   2.397   0.198  0.00  0.00     0.071 C 
ATOM      2  C   UNL d   1       4.756   1.154  -0.386  0.00  0.00     0.217 C 
ATOM      3  C   UNL d   1       3.688   0.146  -0.812  0.00  0.00     0.186 C 
ATOM      4  C   UNL d   1       2.849  -0.253   0.403  0.00  0.00     0.180 C 
ATOM      5  C   UNL d   1       2.173   0.989   0.987  0.00  0.00     0.186 C 
ATOM      6  C   UNL d   1       3.242   1.998   1.413  0.00  0.00     0.217 C 
ENDROOT
BRANCH   3   7
ATOM      7  O   UNL d   1       4.318  -1.015  -1.357  0.00  0.00    -0.349 OA
BRANCH   7   8
ATOM      8  C   UNL d   1       3.544  -1.683  -2.355  0.00  0.00     0.294 C 
ATOM      9  O   UNL d   1       3.491  -0.879  -3.535  0.00  0.00    -0.349 OA
ATOM     10  C   UNL d   1       2.715  -1.446  -4.593  0.00  0.00     0.179 C 
ATOM     11  C   UNL d   1       3.329  -2.784  -5.014  0.00  0.00     0.180 C 
ATOM     12  C   UNL d   1       3.389  -3.714  -3.798  0.00  0.00     0.184 C 
ATOM     13  C   UNL d   1       4.190  -3.031  -2.686  0.00  0.00     0.269 C 
BRANCH  10  14
ATOM     14  C   UNL d   1       2.707  -0.491  -5.788  0.00  0.00     0.198 C 
BRANCH  14  15
ATOM     15  O   UNL d   1       2.031   0.716  -5.429  0.00  0.00    -0.398 OA
ATOM     16  H   UNL d   1       1.987   1.369  -6.141  0.00  0.00     0.209 HD
ENDBRANCH  14  15
ENDBRANCH  10  14
BRANCH  11  17
ATOM     17  O   UNL d   1       4.649  -2.568  -5.515  0.00  0.00    -0.390 OA
ATOM     18  H   UNL d   1       4.687  -1.987  -6.287  0.00  0.00     0.210 HD
ENDBRANCH  11  17
BRANCH  12  19
ATOM     19  O   UNL d   1       4.025  -4.940  -4.162  0.00  0.00    -0.391 OA
ATOM     20  H   UNL d   1       3.570  -5.426  -4.864  0.00  0.00     0.210 HD
ENDBRANCH  12  19
BRANCH  13  21
ATOM     21  N   UNL d   1       5.567  -2.800  -3.157  0.00  0.00    -0.068 N 
ATOM     22  H   UNL d   1       6.119  -2.361  -2.422  0.00  0.00     0.275 HD
ATOM     23  H   UNL d   1       5.998  -3.684  -3.423  0.00  0.00     0.275 HD
ATOM     24  H   UNL d   1       5.544  -2.179  -3.975  0.00  0.00     0.275 HD
ENDBRANCH  13  21
ENDBRANCH   7   8
ENDBRANCH   3   7
BRANCH   2  25
ATOM     25  N   UNL d   1       5.635   0.527   0.617  0.00  0.00    -0.072 N 
ATOM     26  H   UNL d   1       6.340   1.193   0.929  0.00  0.00     0.274 HD
ATOM     27  H   UNL d   1       5.086   0.216   1.417  0.00  0.00     0.274 HD
ATOM     28  H   UNL d   1       6.103  -0.284   0.196  0.00  0.00     0.274 HD
ENDBRANCH   2  25
BRANCH   4  29
ATOM     29  O   UNL d   1       1.851  -1.195   0.005  0.00  0.00    -0.390 OA
ATOM     30  H   UNL d   1       1.280  -1.493   0.727  0.00  0.00     0.210 HD
ENDBRANCH   4  29
BRANCH   5  31
ATOM     31  O   UNL d   1       1.328   1.581  -0.002  0.00  0.00    -0.349 OA
BRANCH  31  32
ATOM     32  C   UNL d   1      -0.013   1.086   0.008  0.00  0.00     0.291 C 
ATOM     33  O   UNL d   1      -0.682   1.547   1.183  0.00  0.00    -0.349 OA
ATOM     34  C   UNL d   1      -2.029   1.086   1.306  0.00  0.00     0.179 C 
ATOM     35  C   UNL d   1      -2.851   1.593   0.118  0.00  0.00     0.182 C 
ATOM     36  C   UNL d   1      -2.206   1.108  -1.183  0.00  0.00     0.247 C 
ATOM     37  C   UNL d   1      -0.754   1.593  -1.232  0.00  0.00     0.206 C 
BRANCH  34  38
ATOM     38  C   UNL d   1      -2.633   1.616   2.608  0.00  0.00     0.198 C 
BRANCH  38  39
ATOM     39  O   UNL d   1      -1.938   1.049   3.721  0.00  0.00    -0.398 OA
ATOM     40  H   UNL d   1      -2.269   1.342   4.581  0.00  0.00     0.209 HD
ENDBRANCH  38  39
ENDBRANCH  34  38
BRANCH  35  41
ATOM     41  O   UNL d   1      -2.881   3.022   0.134  0.00  0.00    -0.391 OA
ATOM     42  H   UNL d   1      -3.277   3.399   0.931  0.00  0.00     0.210 HD
ENDBRANCH  35  41
BRANCH  36  43
ATOM     43  N   UNL d   1      -2.941   1.678  -2.326  0.00  0.00    -0.070 N 
ATOM     44  H   UNL d   1      -2.533   1.353  -3.201  0.00  0.00     0.274 HD
ATOM     45  H   UNL d   1      -3.920   1.400  -2.286  0.00  0.00     0.274 HD
ATOM     46  H   UNL d   1      -2.881   2.702  -2.289  0.00  0.00     0.274 HD
ENDBRANCH  36  43
BRANCH  37  47
ATOM     47  O   UNL d   1      -0.728   3.022  -1.252  0.00  0.00    -0.388 OA
ATOM     48  H   UNL d   1       0.163   3.399  -1.278  0.00  0.00     0.210 HD
ENDBRANCH  37  47
ENDBRANCH  31  32
ENDBRANCH   5  31
BRANCH   6  49
ATOM     49  N   UNL d   1       2.581   3.181   1.993  0.00  0.00    -0.072 N 
ATOM     50  H   UNL d   1       3.279   3.873   2.263  0.00  0.00     0.274 HD
ATOM     51  H   UNL d   1       1.941   3.591   1.315  0.00  0.00     0.274 HD
ATOM     52  H   UNL d   1       2.051   2.897   2.826  0.00  0.00     0.274 HD
ENDBRANCH   6  49
TORSDOF 17
