REMARK  3 active torsions:
REMARK  status: ('A' for Active; 'I' for Inactive)
REMARK    1  A    between atoms: C_5  and  S_8 
REMARK    2  A    between atoms: S_8  and  N_11 
REMARK       I    between atoms: N_11  and  C_12 
REMARK       I    between atoms: C_12  and  N_14 
REMARK    3  A    between atoms: N_14  and  N_15 
ROOT
ATOM      1  N   UNL d   1       0.290   2.793  -3.340  0.00  0.00    -0.231 N 
ATOM      2  C   UNL d   1       0.027   1.471  -3.364  0.00  0.00     0.344 C 
ATOM      3  O   UNL d   1       0.269   0.821  -4.363  0.00  0.00    -0.245 OA
ATOM      4  N   UNL d   1      -0.503   0.870  -2.281  0.00  0.00    -0.270 N 
ATOM      5  H   UNL d   1       0.097   3.311  -2.543  0.00  0.00     0.183 HD
ATOM      6  H   UNL d   1      -0.693  -0.082  -2.298  0.00  0.00     0.185 HD
ENDROOT
BRANCH   1   7
ATOM      7  S   UNL d   1       0.942   3.532  -4.670  0.00  0.00     0.266 S 
ATOM      8  O   UNL d   1       1.074   4.909  -4.346  0.00  0.00    -0.200 OA
ATOM      9  O   UNL d   1       2.047   2.735  -5.077  0.00  0.00    -0.200 OA
BRANCH   7  10
ATOM     10  C   UNL d   1      -0.253   3.430  -5.961  0.00  0.00     0.080 A 
ATOM     11  C   UNL d   1      -1.190   4.435  -6.116  0.00  0.00     0.026 A 
ATOM     12  C   UNL d   1      -2.128   4.356  -7.128  0.00  0.00     0.008 A 
ATOM     13  C   UNL d   1      -2.129   3.272  -7.986  0.00  0.00    -0.062 A 
ATOM     14  C   UNL d   1      -3.151   3.185  -9.090  0.00  0.00     0.048 C 
ATOM     15  C   UNL d   1      -1.192   2.267  -7.831  0.00  0.00     0.008 A 
ATOM     16  C   UNL d   1      -0.251   2.349  -6.822  0.00  0.00     0.026 A 
ENDBRANCH   7  10
ENDBRANCH   1   7
BRANCH   4  17
ATOM     17  N   UNL d   1      -0.775   1.600  -1.159  0.00  0.00    -0.227 NA
ATOM     18  C   UNL d   1      -2.198   1.451  -0.758  0.00  0.00     0.118 C 
ATOM     19  C   UNL d   1      -2.228   1.848   0.733  0.00  0.00     0.006 C 
ATOM     20  C   UNL d   1      -0.781   1.607   1.241  0.00  0.00     0.006 C 
ATOM     21  C   UNL d   1      -3.146   0.869   1.490  0.00  0.00     0.006 C 
ATOM     22  C   UNL d   1      -0.013   1.086   0.008  0.00  0.00     0.118 C 
ATOM     23  C   UNL d   1      -0.901   0.457   2.291  0.00  0.00     0.006 C 
ATOM     24  C   UNL d   1      -2.366   0.536   2.786  0.00  0.00     0.001 C 
ENDBRANCH   4  17
TORSDOF 3
