REMARK  10 active torsions:
REMARK  status: ('A' for Active; 'I' for Inactive)
REMARK    1  A    between atoms: C_2  and  O_3 
REMARK    2  A    between atoms: O_3  and  C_4 
REMARK    3  A    between atoms: C_4  and  C_6 
REMARK    4  A    between atoms: C_6  and  C_7 
REMARK    5  A    between atoms: C_6  and  N_29 
REMARK    6  A    between atoms: C_7  and  C_8 
REMARK    7  A    between atoms: C_8  and  C_9 
REMARK    8  A    between atoms: CA_15  and  C_17 
REMARK    9  A    between atoms: CA_15  and  N_29 
REMARK       I    between atoms: C_17  and  N_19 
REMARK   10  A    between atoms: CA_26  and  C_27 
ROOT
ATOM      1  N   UNL d   1       1.423   1.225   2.182  0.00  0.00    -0.049 N 
ATOM      2  H1  UNL d   1       1.269   2.240   2.198  0.00  0.00     0.279 HD
ATOM      3  H2  UNL d   1       1.897   0.965   1.309  0.00  0.00     0.279 HD
ENDROOT
BRANCH   1   4
ATOM      4  C   UNL d   1       0.121   0.535   2.252  0.00  0.00     0.286 C 
BRANCH   4   5
ATOM      5  C   UNL d   1      -0.819   1.323   3.128  0.00  0.00     0.289 C 
ATOM      6  O   UNL d   1      -0.445   2.348   3.647  0.00  0.00    -0.263 OA
BRANCH   5   7
ATOM      7  O   UNL d   1      -2.071   0.885   3.332  0.00  0.00    -0.320 OA
BRANCH   7   8
ATOM      8  C   UNL d   1      -2.921   1.694   4.188  0.00  0.00     0.174 C 
ATOM      9  C   UNL d   1      -4.300   1.041   4.301  0.00  0.00     0.034 C 
ENDBRANCH   7   8
ENDBRANCH   5   7
ENDBRANCH   4   5
BRANCH   4  10
ATOM     10  C   UNL d   1      -0.466   0.426   0.843  0.00  0.00     0.048 C 
BRANCH  10  11
ATOM     11  C   UNL d   1       0.425  -0.477  -0.012  0.00  0.00     0.041 C 
BRANCH  11  12
ATOM     12  C   UNL d   1      -0.154  -0.584  -1.400  0.00  0.00    -0.058 A 
ATOM     13  C   UNL d   1       0.220   0.320  -2.376  0.00  0.00     0.007 A 
ATOM     14  C   UNL d   1      -0.310   0.221  -3.649  0.00  0.00     0.001 A 
ATOM     15  C   UNL d   1      -1.214  -0.782  -3.945  0.00  0.00     0.000 A 
ATOM     16  C   UNL d   1      -1.588  -1.686  -2.968  0.00  0.00     0.001 A 
ATOM     17  C   UNL d   1      -1.054  -1.591  -1.697  0.00  0.00     0.007 A 
ENDBRANCH  11  12
ENDBRANCH  10  11
ENDBRANCH   4  10
ENDBRANCH   1   4
BRANCH   1  18
ATOM     18  CA  UNL d   1       2.268   0.843   3.328  0.00  0.00     0.274 C 
ATOM     19  CB  UNL d   1       1.933   1.730   4.528  0.00  0.00     0.050 C 
BRANCH  18  20
ATOM     20  C   UNL d   1       3.717   1.025   2.957  0.00  0.00     0.251 C 
ATOM     21  O   UNL d   1       4.020   1.755   2.038  0.00  0.00    -0.271 OA
ATOM     22  N   UNL d   1       4.676   0.377   3.648  0.00  0.00    -0.331 N 
ATOM     23  CA  UNL d   1       4.439  -0.612   4.705  0.00  0.00     0.189 C 
ATOM     24  C   UNL d   1       6.123   0.555   3.465  0.00  0.00     0.092 C 
ATOM     25  C   UNL d   1       5.808  -1.063   5.242  0.00  0.00     0.043 C 
ATOM     26  C   UNL d   1       6.785   0.029   4.763  0.00  0.00     0.011 C 
ATOM     27  C   UNL d   1       8.098  -0.626   4.301  0.00  0.00     0.007 C 
ATOM     28  C   UNL d   1       7.846  -1.120   2.869  0.00  0.00     0.002 C 
ATOM     29  C   UNL d   1       6.610  -0.377   2.343  0.00  0.00     0.026 C 
BRANCH  23  30
ATOM     30  C   UNL d   1       3.700  -1.797   4.140  0.00  0.00     0.197 C 
ATOM     31  O   UNL d   1       3.398  -1.818   2.970  0.00  0.00    -0.646 OA
ATOM     32  OXT UNL d   1       3.376  -2.828   4.936  0.00  0.00    -0.646 OA
ENDBRANCH  23  30
ENDBRANCH  18  20
ENDBRANCH   1  18
TORSDOF 10
