REMARK  15 active torsions:
REMARK  status: ('A' for Active; 'I' for Inactive)
REMARK    1  A    between atoms: C_3  and  N_49 
REMARK    2  A    between atoms: C_4  and  O_8 
REMARK    3  A    between atoms: C_6  and  C_7 
REMARK    4  A    between atoms: C_7  and  N_41 
REMARK    5  A    between atoms: O_8  and  C_9 
REMARK    6  A    between atoms: C_10  and  N_47 
REMARK    7  A    between atoms: C_12  and  N_45 
REMARK    8  A    between atoms: C_13  and  O_16 
REMARK    9  A    between atoms: C_14  and  O_15 
REMARK   10  A    between atoms: O_16  and  C_17 
REMARK   11  A    between atoms: C_18  and  O_26 
REMARK   12  A    between atoms: C_19  and  N_43 
REMARK   13  A    between atoms: C_20  and  O_25 
REMARK   14  A    between atoms: C_21  and  C_23 
REMARK   15  A    between atoms: C_23  and  O_24 
ROOT
ATOM      1  C   UNL d   1      -2.676   0.074   0.049  0.00  0.00     0.186 C 
ATOM      2  C   UNL d   1      -1.315  -0.423   0.541  0.00  0.00     0.217 C 
ATOM      3  C   UNL d   1      -0.245   0.624   0.224  0.00  0.00     0.071 C 
ATOM      4  C   UNL d   1      -0.189   0.854  -1.287  0.00  0.00     0.217 C 
ATOM      5  C   UNL d   1      -1.550   1.351  -1.779  0.00  0.00     0.186 C 
ATOM      6  C   UNL d   1      -2.619   0.304  -1.462  0.00  0.00     0.180 C 
ENDROOT
BRANCH   5   7
ATOM      7  O   UNL d   1      -1.874   2.578  -1.121  0.00  0.00    -0.349 OA
BRANCH   7   8
ATOM      8  C   UNL d   1      -2.341   3.603  -2.001  0.00  0.00     0.291 C 
ATOM      9  O   UNL d   1      -3.753   3.471  -2.180  0.00  0.00    -0.349 OA
ATOM     10  C   UNL d   1      -4.321   4.436  -3.067  0.00  0.00     0.179 C 
ATOM     11  C   UNL d   1      -4.090   5.842  -2.506  0.00  0.00     0.182 C 
ATOM     12  C   UNL d   1      -2.587   6.066  -2.316  0.00  0.00     0.247 C 
ATOM     13  C   UNL d   1      -2.030   4.975  -1.397  0.00  0.00     0.206 C 
BRANCH  10  14
ATOM     14  C   UNL d   1      -5.824   4.182  -3.203  0.00  0.00     0.198 C 
BRANCH  14  15
ATOM     15  O   UNL d   1      -6.038   2.918  -3.834  0.00  0.00    -0.398 OA
ATOM     16  H   UNL d   1      -6.970   2.691  -3.953  0.00  0.00     0.209 HD
ENDBRANCH  14  15
ENDBRANCH  10  14
BRANCH  11  17
ATOM     17  O   UNL d   1      -4.754   5.968  -1.247  0.00  0.00    -0.391 OA
ATOM     18  H   UNL d   1      -5.711   5.838  -1.292  0.00  0.00     0.210 HD
ENDBRANCH  11  17
BRANCH  12  19
ATOM     19  N   UNL d   1      -2.370   7.381  -1.687  0.00  0.00    -0.070 N 
ATOM     20  H   UNL d   1      -1.373   7.551  -1.568  0.00  0.00     0.274 HD
ATOM     21  H   UNL d   1      -2.773   8.116  -2.265  0.00  0.00     0.274 HD
ATOM     22  H   UNL d   1      -2.824   7.393  -0.765  0.00  0.00     0.274 HD
ENDBRANCH  12  19
BRANCH  13  23
ATOM     23  O   UNL d   1      -2.640   5.078  -0.109  0.00  0.00    -0.388 OA
ATOM     24  H   UNL d   1      -2.239   4.510   0.563  0.00  0.00     0.210 HD
ENDBRANCH  13  23
ENDBRANCH   7   8
ENDBRANCH   5   7
BRANCH   4  25
ATOM     25  N   UNL d   1       0.830   1.879  -1.577  0.00  0.00    -0.072 N 
ATOM     26  H   UNL d   1       1.747   1.554  -1.276  0.00  0.00     0.274 HD
ATOM     27  H   UNL d   1       0.852   2.077  -2.576  0.00  0.00     0.274 HD
ATOM     28  H   UNL d   1       0.596   2.740  -1.070  0.00  0.00     0.274 HD
ENDBRANCH   4  25
BRANCH   6  29
ATOM     29  O   UNL d   1      -3.891   0.769  -1.921  0.00  0.00    -0.390 OA
ATOM     30  H   UNL d   1      -3.928   0.936  -2.873  0.00  0.00     0.210 HD
ENDBRANCH   6  29
BRANCH   1  31
ATOM     31  O   UNL d   1      -3.001   1.300   0.706  0.00  0.00    -0.349 OA
BRANCH  31  32
ATOM     32  C   UNL d   1      -4.080   1.193   1.637  0.00  0.00     0.291 C 
ATOM     33  C   UNL d   1      -4.806   2.538   1.733  0.00  0.00     0.238 C 
ATOM     34  C   UNL d   1      -3.836   3.596   2.267  0.00  0.00     0.040 C 
ATOM     35  C   UNL d   1      -3.287   3.134   3.620  0.00  0.00     0.036 C 
ATOM     36  C   UNL d   1      -2.619   1.766   3.450  0.00  0.00     0.150 C 
ATOM     37  O   UNL d   1      -3.568   0.837   2.922  0.00  0.00    -0.352 OA
BRANCH  33  38
ATOM     38  N   UNL d   1      -5.297   2.914   0.396  0.00  0.00    -0.070 N 
ATOM     39  H   UNL d   1      -5.847   3.770   0.454  0.00  0.00     0.274 HD
ATOM     40  H   UNL d   1      -4.511   3.059  -0.236  0.00  0.00     0.274 HD
ATOM     41  H   UNL d   1      -5.888   2.160   0.028  0.00  0.00     0.274 HD
ENDBRANCH  33  38
BRANCH  36  42
ATOM     42  C   UNL d   1      -2.121   1.270   4.809  0.00  0.00     0.261 C 
BRANCH  42  43
ATOM     43  N   UNL d   1      -1.413  -0.009   4.620  0.00  0.00    -0.077 N 
ATOM     44  H   UNL d   1      -0.578   0.135   4.055  0.00  0.00     0.274 HD
ATOM     45  H   UNL d   1      -1.148  -0.398   5.524  0.00  0.00     0.274 HD
ATOM     46  H   UNL d   1      -2.034  -0.670   4.140  0.00  0.00     0.274 HD
ENDBRANCH  42  43
ENDBRANCH  36  42
ENDBRANCH  31  32
ENDBRANCH   1  31
BRANCH   2  47
ATOM     47  N   UNL d   1      -1.389  -0.661   1.993  0.00  0.00    -0.072 N 
ATOM     48  H   UNL d   1      -0.505  -1.039   2.330  0.00  0.00     0.274 HD
ATOM     49  H   UNL d   1      -1.593   0.210   2.480  0.00  0.00     0.274 HD
ATOM     50  H   UNL d   1      -2.137  -1.337   2.187  0.00  0.00     0.274 HD
ENDBRANCH   2  47
TORSDOF 15
