REMARK  6 active torsions:
REMARK  status: ('A' for Active; 'I' for Inactive)
REMARK    1  A    between atoms: C_4  and  C_7 
REMARK    2  A    between atoms: C_7  and  S_8 
REMARK    3  A    between atoms: S_8  and  C_9 
REMARK    4  A    between atoms: C_9  and  C_10 
REMARK    5  A    between atoms: C_16  and  S_23 
REMARK    6  A    between atoms: S_23  and  N_26 
ROOT
ATOM      1  C   UNL d   1      -6.753  -2.358   0.794  0.00  0.00     0.100 C 
ATOM      2  N   UNL d   1      -5.751  -2.280  -0.006  0.00  0.00    -0.344 N 
ATOM      3  HN  UNL d   1      -5.696  -2.995  -0.732  1.00  0.00     0.167 HD
ATOM      4  C   UNL d   1      -4.752  -1.354   0.004  0.00  0.00     0.058 A 
ATOM      5  C   UNL d   1      -3.889  -1.232  -1.089  0.00  0.00     0.056 A 
ATOM      6  C   UNL d   1      -2.894  -0.275  -1.075  0.00  0.00     0.059 A 
ATOM      7  C   UNL d   1      -2.733   0.560   0.018  0.00  0.00     0.102 A 
ATOM      8  C   UNL d   1      -3.580   0.443   1.109  0.00  0.00     0.054 A 
ATOM      9  C   UNL d   1      -4.573  -0.502   1.099  0.00  0.00     0.108 A 
ATOM     10  S   UNL d   1      -5.673  -0.700   2.471  0.00  0.00     0.266 S 
ATOM     11  O   UNL d   1      -5.074  -1.634   3.359  0.00  0.00    -0.200 OA
ATOM     12  O   UNL d   1      -6.079   0.601   2.875  0.00  0.00    -0.200 OA
ATOM     13  N   UNL d   1      -7.005  -1.447   1.792  0.00  0.00    -0.269 N 
ATOM     14 CL   UNL d   1      -1.830  -0.122  -2.438  0.00  0.00    -0.083 Cl
ATOM     15  H   UNL d   1      -7.908  -1.248   2.086  0.00  0.00     0.180 HD
ENDROOT
BRANCH   1  16
ATOM     16  C   UNL d   1      -7.707  -3.513   0.629  0.00  0.00     0.151 C 
BRANCH  16  17
ATOM     17  S   UNL d   1      -7.155  -4.561  -0.746  0.00  0.00    -0.157 SA
BRANCH  17  18
ATOM     18  C   UNL d   1      -8.393  -5.886  -0.812  0.00  0.00     0.112 C 
BRANCH  18  19
ATOM     19  C   UNL d   1      -8.048  -6.840  -1.927  0.00  0.00    -0.049 A 
ATOM     20  C   UNL d   1      -7.234  -7.928  -1.678  0.00  0.00     0.008 A 
ATOM     21  C   UNL d   1      -6.918  -8.803  -2.700  0.00  0.00     0.001 A 
ATOM     22  C   UNL d   1      -7.417  -8.590  -3.971  0.00  0.00     0.000 A 
ATOM     23  C   UNL d   1      -8.232  -7.501  -4.220  0.00  0.00     0.001 A 
ATOM     24  C   UNL d   1      -8.551  -6.629  -3.197  0.00  0.00     0.008 A 
ENDBRANCH  18  19
ENDBRANCH  17  18
ENDBRANCH  16  17
ENDBRANCH   1  16
BRANCH   7  25
ATOM     25  S   UNL d   1      -1.456   1.774   0.019  0.00  0.00     0.258 S 
ATOM     26  O   UNL d   1      -1.536   2.446   1.268  0.00  0.00    -0.201 OA
ATOM     27  O   UNL d   1      -1.548   2.460  -1.223  0.00  0.00    -0.201 OA
BRANCH  25  28
ATOM     28  N   UNL d   1      -0.011   0.966   0.007  0.00  0.00    -0.324 N 
ATOM     29  H   UNL d   1       0.002  -0.004   0.002  0.00  0.00     0.169 HD
ATOM     30  H   UNL d   1       0.822   1.462   0.002  0.00  0.00     0.169 HD
ENDBRANCH  25  28
ENDBRANCH   7  25
TORSDOF 6
