REMARK  8 active torsions:
REMARK  status: ('A' for Active; 'I' for Inactive)
REMARK    1  A    between atoms: C_2  and  C_3 
REMARK    2  A    between atoms: C_3  and  O_5 
REMARK    3  A    between atoms: O_5  and  C_6 
REMARK    4  A    between atoms: C_6  and  C_28 
REMARK    5  A    between atoms: C_12  and  O_26 
REMARK    6  A    between atoms: C_28  and  C_30 
REMARK    7  A    between atoms: C_30  and  O_31 
REMARK    8  A    between atoms: O_31  and  C_32 
ROOT
ATOM      1  C   UNL d   1      -2.407   1.054  -0.099  0.00  0.00     0.140 C 
ATOM      2  C   UNL d   1      -2.766   0.208   1.139  0.00  0.00     0.048 C 
ATOM      3  C   UNL d   1      -3.909   0.950   1.857  0.00  0.00     0.009 C 
ATOM      4  C   UNL d   1      -4.616   1.771   0.748  0.00  0.00     0.002 C 
ATOM      5  C   UNL d   1      -3.494   2.118  -0.234  0.00  0.00     0.002 C 
ATOM      6  C   UNL d   1      -3.957   2.413  -1.630  0.00  0.00     0.045 C 
ATOM      7  C   UNL d   1      -5.054   1.502  -2.179  0.00  0.00     0.124 C 
ATOM      8  C   UNL d   1      -6.215   1.429  -1.202  0.00  0.00     0.035 C 
ATOM      9  C   UNL d   1      -5.744   0.952   0.167  0.00  0.00    -0.001 C 
ATOM     10  C   UNL d   1      -5.438  -0.542   0.091  0.00  0.00     0.014 C 
ATOM     11  C   UNL d   1      -6.779  -1.283   0.054  0.00  0.00     0.012 C 
ATOM     12  C   UNL d   1      -7.762  -0.560  -0.830  0.00  0.00    -0.060 C 
ATOM     13  C   UNL d   1      -9.003  -1.075  -0.887  0.00  0.00     0.059 C 
ATOM     14  C   UNL d   1     -10.057  -0.367  -1.643  0.00  0.00     0.172 C 
ATOM     15  O   UNL d   1     -11.115  -0.921  -1.929  0.00  0.00    -0.289 OA
ATOM     16  C   UNL d   1      -9.810   1.042  -2.022  0.00  0.00     0.052 C 
ATOM     17  C   UNL d   1      -8.555   1.503  -2.017  0.00  0.00    -0.009 C 
ATOM     18  C   UNL d   1      -7.397   0.616  -1.672  0.00  0.00     0.004 C 
ATOM     19  C   UNL d   1      -7.023  -0.040  -3.003  0.00  0.00     0.025 C 
ATOM     20  C   UNL d   1      -7.340  -1.399   1.471  0.00  0.00     0.015 C 
ATOM     21  C   UNL d   1      -2.860   3.439   0.287  0.00  0.00     0.019 C 
ENDROOT
BRANCH   1  22
ATOM     22  O   UNL d   1      -1.121   1.711   0.138  0.00  0.00    -0.301 OA
BRANCH  22  23
ATOM     23  C   UNL d   1      -0.059   0.916   0.340  0.00  0.00     0.259 C 
ATOM     24  O   UNL d   1      -0.200  -0.283   0.379  0.00  0.00    -0.265 OA
BRANCH  23  25
ATOM     25  C   UNL d   1       1.312   1.519   0.512  0.00  0.00     0.106 C 
ATOM     26  C   UNL d   1       2.337   0.403   0.719  0.00  0.00     0.015 C 
ENDBRANCH  23  25
ENDBRANCH  22  23
ENDBRANCH   1  22
BRANCH   1  27
ATOM     27  C   UNL d   1      -2.285   0.173  -1.310  0.00  0.00     0.186 C 
ATOM     28  O   UNL d   1      -2.898  -0.866  -1.365  0.00  0.00    -0.292 OA
BRANCH  27  29
ATOM     29  C   UNL d   1      -1.397   0.585  -2.456  0.00  0.00     0.260 C 
BRANCH  29  30
ATOM     30  O   UNL d   1      -1.365  -0.474  -3.449  0.00  0.00    -0.314 OA
BRANCH  30  31
ATOM     31  C   UNL d   1      -0.614  -0.262  -4.541  0.00  0.00     0.255 C 
ATOM     32  O   UNL d   1      -0.003   0.773  -4.663  0.00  0.00    -0.266 OA
ATOM     33  C   UNL d   1      -0.532  -1.316  -5.615  0.00  0.00     0.126 C 
ENDBRANCH  30  31
ENDBRANCH  29  30
ENDBRANCH  27  29
ENDBRANCH   1  27
BRANCH   7  34
ATOM     34  O   UNL d   1      -5.478   2.118  -3.413  0.00  0.00    -0.395 OA
ATOM     35  H   UNL d   1      -4.779   2.192  -4.076  0.00  0.00     0.210 HD
ENDBRANCH   7  34
TORSDOF 8
