REMARK  2 active torsions:
REMARK  status: ('A' for Active; 'I' for Inactive)
REMARK    1  A    between atoms: C_3  and  N_4 
REMARK    2  A    between atoms: C_11  and  C_17 
ROOT
ATOM      1  C   UNL d   1       5.391  -1.114  -3.083  0.00  0.00     0.014 C 
ATOM      2  C   UNL d   1       4.871  -1.457  -2.087  0.00  0.00    -0.097 C 
ATOM      3  C   UNL d   1       4.220  -1.888  -0.840  0.00  0.00     0.225 C 
ENDROOT
BRANCH   3   4
ATOM      4  N   UNL d   1       3.920  -0.714  -0.015  0.00  0.00    -0.305 N 
ATOM      5  C   UNL d   1       4.851  -0.318   0.849  0.00  0.00     0.242 C 
ATOM      6  C   UNL d   1       4.670   0.910   1.699  0.00  0.00     0.223 C 
ATOM      7  O   UNL d   1       5.872  -0.964   0.955  0.00  0.00    -0.271 OA
ATOM      8  N   UNL d   1       4.582   2.081   0.826  0.00  0.00    -0.380 N 
ATOM      9  C   UNL d   1       3.621   2.229  -0.016  0.00  0.00     0.051 C 
ATOM     10  HN  UNL d   1       5.303   2.800   0.887  1.00  0.00     0.160 HD
ATOM     11  C   UNL d   1       2.514   1.279  -0.205  0.00  0.00     0.020 A 
ATOM     12  C   UNL d   1       2.688  -0.103  -0.197  0.00  0.00     0.051 A 
ATOM     13  C   UNL d   1       1.228   1.808  -0.400  0.00  0.00     0.040 A 
ATOM     14  C   UNL d   1       1.581  -0.935  -0.380  0.00  0.00     0.032 A 
ATOM     15  C   UNL d   1       0.326  -0.401  -0.569  0.00  0.00     0.026 A 
ATOM     16  C   UNL d   1       0.149   0.974  -0.579  0.00  0.00     0.035 A 
ATOM     17 CL   UNL d   1      -1.434   1.643  -0.826  0.00  0.00    -0.084 Cl
BRANCH   9  18
ATOM     18  C   UNL d   1       3.631   3.447  -0.859  0.00  0.00    -0.009 A 
ATOM     19  C   UNL d   1       4.314   4.587  -0.435  0.00  0.00     0.014 A 
ATOM     20  C   UNL d   1       4.319   5.718  -1.224  0.00  0.00     0.001 A 
ATOM     21  C   UNL d   1       3.648   5.725  -2.433  0.00  0.00     0.000 A 
ATOM     22  C   UNL d   1       2.967   4.598  -2.859  0.00  0.00     0.001 A 
ATOM     23  C   UNL d   1       2.960   3.458  -2.082  0.00  0.00     0.014 A 
ENDBRANCH   9  18
ENDBRANCH   3   4
TORSDOF 2
