REMARK  0 active torsions:
REMARK  status: ('A' for Active; 'I' for Inactive)
ROOT
ATOM      1  C   UNL d   1      -2.123  -4.302   4.062  0.00  0.00     0.269 C 
ATOM      2  C   UNL d   1      -2.936  -3.113   2.116  0.00  0.00     0.238 C 
ATOM      3  C   UNL d   1      -2.609  -2.783   0.655  0.00  0.00     0.062 C 
ATOM      4  C   UNL d   1      -1.327  -1.978   0.626  0.00  0.00    -0.065 C 
ATOM      5  C   UNL d   1      -1.240  -0.841  -0.074  0.00  0.00    -0.012 C 
ATOM      6  C   UNL d   1      -2.447  -0.268  -0.716  0.00  0.00    -0.018 A 
ATOM      7  C   UNL d   1      -3.159  -1.014  -1.655  0.00  0.00     0.013 A 
ATOM      8  C   UNL d   1      -4.292  -0.476  -2.232  0.00  0.00     0.001 A 
ATOM      9  C   UNL d   1      -4.711   0.793  -1.873  0.00  0.00     0.001 A 
ATOM     10  C   UNL d   1      -4.000   1.531  -0.947  0.00  0.00     0.008 A 
ATOM     11  C   UNL d   1      -2.854   1.003  -0.367  0.00  0.00    -0.047 A 
ATOM     12  C   UNL d   1      -2.087   1.837   0.611  0.00  0.00     0.044 C 
ATOM     13  C   UNL d   1      -0.768   2.321   0.048  0.00  0.00     0.051 C 
ATOM     14  C   UNL d   1       0.209   1.214  -0.195  0.00  0.00    -0.006 A 
ATOM     15  C   UNL d   1       0.079  -0.141  -0.211  0.00  0.00    -0.011 A 
ATOM     16  C   UNL d   1       1.262  -0.885  -0.413  0.00  0.00     0.020 A 
ATOM     17  C   UNL d   1       2.432  -0.252  -0.610  0.00  0.00     0.051 A 
ATOM     18  S   UNL d   1       1.949   1.461  -0.508  0.00  0.00    -0.106 SA
ATOM     19  C   UNL d   1      -0.144  -2.507   1.410  0.00  0.00     0.062 C 
ATOM     20  C   UNL d   1      -0.629  -2.852   2.827  0.00  0.00     0.238 C 
ATOM     21  N   UNL d   1      -1.769  -3.790   2.723  0.00  0.00    -0.074 N 
ATOM     22  H   UNL d   1      -1.495  -4.579   2.126  0.00  0.00     0.279 HD
ENDROOT
TORSDOF 0
