REMARK  6 active torsions:
REMARK  status: ('A' for Active; 'I' for Inactive)
REMARK    1  A    between atoms: N_11  and  C_12 
REMARK    2  A    between atoms: C_17  and  C_18 
REMARK    3  A    between atoms: C_17  and  N_29 
REMARK    4  A    between atoms: C_18  and  C_19 
REMARK    5  A    between atoms: C_19  and  C_20 
REMARK    6  A    between atoms: C_20  and  C_22 
ROOT
ATOM      1  C   UNL d   1       3.713   3.288  -1.108  0.00  0.00     0.096 C 
ATOM      2  C   UNL d   1       2.817   4.000  -0.090  0.00  0.00     0.053 C 
ATOM      3  C   UNL d   1       1.384   3.484  -0.231  0.00  0.00     0.237 C 
ATOM      4  C   UNL d   1       2.175   1.325  -0.994  0.00  0.00     0.237 C 
ATOM      5  C   UNL d   1       3.632   1.777  -0.877  0.00  0.00     0.053 C 
ATOM      6  N   UNL d   1       1.371   2.029   0.027  0.00  0.00    -0.071 N 
ATOM      7  H   UNL d   1       1.778   1.850   0.953  0.00  0.00     0.279 HD
ENDROOT
BRANCH   6   8
ATOM      8  C   UNL d   1      -0.019   1.526   0.010  0.00  0.00     0.235 C 
BRANCH   8   9
ATOM      9  C   UNL d   1       0.002  -0.004   0.002  0.00  0.00     0.035 C 
BRANCH   9  10
ATOM     10  C   UNL d   1      -1.433  -0.534   0.013  0.00  0.00     0.085 C 
BRANCH  10  11
ATOM     11  C   UNL d   1      -1.413  -2.041   0.005  0.00  0.00     0.159 C 
ATOM     12  O   UNL d   1      -0.354  -2.632  -0.009  0.00  0.00    -0.292 OA
BRANCH  11  13
ATOM     13  C   UNL d   1      -2.676  -2.793   0.013  0.00  0.00     0.010 A 
ATOM     14  C   UNL d   1      -2.660  -4.192   0.005  0.00  0.00     0.018 A 
ATOM     15  C   UNL d   1      -3.848  -4.891   0.013  0.00  0.00     0.043 A 
ATOM     16  C   UNL d   1      -5.056  -4.211   0.028  0.00  0.00     0.116 A 
ATOM     17  C   UNL d   1      -5.079  -2.824   0.035  0.00  0.00     0.043 A 
ATOM     18  F   UNL d   1      -6.217  -4.902   0.035  0.00  0.00    -0.206 F 
ATOM     19  C   UNL d   1      -3.899  -2.113   0.034  0.00  0.00     0.018 A 
ENDBRANCH  11  13
ENDBRANCH  10  11
ENDBRANCH   9  10
ENDBRANCH   8   9
ENDBRANCH   6   8
BRANCH   1  20
ATOM     20  N   UNL d   1       5.097   3.737  -0.941  0.00  0.00    -0.317 N 
ATOM     21  C   UNL d   1       5.873   4.367  -1.910  0.00  0.00     0.064 A 
ATOM     22  C   UNL d   1       5.632   4.747  -3.222  0.00  0.00     0.032 A 
ATOM     23  C   UNL d   1       7.118   4.618  -1.331  0.00  0.00     0.061 A 
ATOM     24  C   UNL d   1       6.625   5.372  -3.950  0.00  0.00     0.002 A 
ATOM     25  C   UNL d   1       7.860   5.621  -3.376  0.00  0.00     0.002 A 
ATOM     26  C   UNL d   1       8.109   5.246  -2.070  0.00  0.00     0.032 A 
ATOM     27  N   UNL d   1       7.061   4.132  -0.027  0.00  0.00    -0.331 N 
ATOM     28  H   UNL d   1       7.780   4.165   0.623  0.00  0.00     0.168 HD
ATOM     29  C   UNL d   1       5.835   3.615   0.179  0.00  0.00     0.179 A 
ATOM     30  S   UNL d   1       5.298   2.906   1.642  0.00  0.00    -0.040 SA
ENDBRANCH   1  20
TORSDOF 6
