REMARK  7 active torsions:
REMARK  status: ('A' for Active; 'I' for Inactive)
REMARK    1  A    between atoms: C_2  and  N_20 
REMARK    2  A    between atoms: C_4  and  C_5 
REMARK    3  A    between atoms: C_4  and  N_20 
REMARK    4  A    between atoms: C_5  and  C_6 
REMARK    5  A    between atoms: C_5  and  O_18 
REMARK    6  A    between atoms: C_6  and  O_7 
REMARK    7  A    between atoms: O_7  and  C_8 
ROOT
ATOM      1  C   UNL d   1      -3.768   5.861   0.068  0.00  0.00     0.209 C 
ENDROOT
BRANCH   1   2
ATOM      2  C   UNL d   1      -3.590   7.381   0.074  0.00  0.00     0.168 C 
BRANCH   2   3
ATOM      3  C   UNL d   1      -4.959   8.055  -0.035  0.00  0.00     0.266 C 
BRANCH   3   4
ATOM      4  N   UNL d   1      -4.772   9.513  -0.149  0.00  0.00    -0.069 N 
ATOM      5  H   UNL d   1      -4.279   9.858   0.683  0.00  0.00     0.277 HD
ATOM      6  H   UNL d   1      -4.215   9.719  -0.987  0.00  0.00     0.277 HD
BRANCH   4   7
ATOM      7  C   UNL d   1      -6.079  10.190  -0.257  0.00  0.00     0.178 C 
ATOM      8  C   UNL d   1      -6.643  10.436   1.144  0.00  0.00     0.039 C 
ATOM      9  C   UNL d   1      -5.893  11.529  -0.974  0.00  0.00     0.039 C 
ENDBRANCH   4   7
ENDBRANCH   3   4
ENDBRANCH   2   3
BRANCH   2  10
ATOM     10  O   UNL d   1      -2.958   7.782   1.292  0.00  0.00    -0.392 OA
ATOM     11  H   UNL d   1      -3.455   7.549   2.088  0.00  0.00     0.210 HD
ENDBRANCH   2  10
ENDBRANCH   1   2
BRANCH   1  12
ATOM     12  O   UNL d   1      -2.485   5.232   0.053  0.00  0.00    -0.348 OA
BRANCH  12  13
ATOM     13  C   UNL d   1      -2.464   3.874   0.046  0.00  0.00     0.080 A 
ATOM     14  C   UNL d   1      -1.236   3.183   0.031  0.00  0.00     0.007 A 
ATOM     15  C   UNL d   1      -1.237   1.766   0.018  0.00  0.00    -0.023 A 
ATOM     16  C   UNL d   1      -0.012   3.871   0.022  0.00  0.00     0.015 A 
ATOM     17  C   UNL d   1      -2.462   1.077   0.033  0.00  0.00     0.012 A 
ATOM     18  C   UNL d   1      -0.013   1.076   0.008  0.00  0.00     0.012 A 
ATOM     19  C   UNL d   1      -3.631   1.776   0.047  0.00  0.00     0.004 A 
ATOM     20  C   UNL d   1      -3.635   3.168   0.054  0.00  0.00     0.037 A 
ATOM     21  C   UNL d   1       1.155   1.776   0.001  0.00  0.00     0.001 A 
ATOM     22  C   UNL d   1       1.155   3.170   0.008  0.00  0.00     0.001 A 
ENDBRANCH  12  13
ENDBRANCH   1  12
TORSDOF 7
