REMARK  6 active torsions:
REMARK  status: ('A' for Active; 'I' for Inactive)
REMARK    1  A    between atoms: C_3  and  O_23 
REMARK    2  A    between atoms: C_8  and  C_9 
REMARK    3  A    between atoms: C_9  and  S_10 
REMARK    4  A    between atoms: S_10  and  C_12 
REMARK    5  A    between atoms: O_23  and  C_24 
REMARK    6  A    between atoms: C_24  and  C_25 
ROOT
ATOM      1  C   UNL d   1       1.236   3.572   0.009  0.00  0.00     0.053 C 
ATOM      2  C   UNL d   1       1.200   2.065   0.002  0.00  0.00    -0.005 A 
ATOM      3  C   UNL d   1      -0.017   1.388   0.010  0.00  0.00     0.078 A 
ATOM      4  C   UNL d   1       0.002  -0.004   0.002  0.00  0.00     0.054 A 
ATOM      5  C   UNL d   1       1.217  -0.658  -0.013  0.00  0.00     0.091 A 
ATOM      6  N   UNL d   1       2.349   0.018  -0.020  0.00  0.00    -0.368 N 
ATOM      7  HN  UNL d   1       3.232  -0.493  -0.032  1.00  0.00     0.165 HD
ATOM      8  C   UNL d   1       2.372   1.338  -0.013  0.00  0.00     0.029 A 
ENDROOT
BRANCH   8   9
ATOM      9  C   UNL d   1       3.696   2.059  -0.023  0.00  0.00     0.175 C 
BRANCH   9  10
ATOM     10  S   UNL d   1       4.210   2.358  -1.736  0.00  0.00     0.090 S 
ATOM     11  O   UNL d   1       4.551   1.123  -2.351  0.00  0.00    -0.249 OA
BRANCH  10  12
ATOM     12  C   UNL d   1       5.751   3.196  -1.579  0.00  0.00     0.176 A 
ATOM     13  N   UNL d   1       6.914   2.615  -1.523  0.00  0.00    -0.333 N 
ATOM     14  C   UNL d   1       7.888   3.553  -1.403  0.00  0.00     0.061 A 
ATOM     15  HN  UNL d   1       7.069   1.607  -1.564  1.00  0.00     0.168 HD
ATOM     16  C   UNL d   1       7.251   4.805  -1.385  0.00  0.00     0.061 A 
ATOM     17  C   UNL d   1       9.281   3.488  -1.304  0.00  0.00     0.032 A 
ATOM     18  N   UNL d   1       5.900   4.546  -1.505  0.00  0.00    -0.333 N 
ATOM     19  C   UNL d   1       8.007   5.963  -1.270  0.00  0.00     0.032 A 
ATOM     20  H   UNL d   1       5.167   5.226  -1.531  0.00  0.00     0.168 HD
ATOM     21  C   UNL d   1       9.380   5.876  -1.173  0.00  0.00     0.002 A 
ATOM     22  C   UNL d   1      10.009   4.639  -1.190  0.00  0.00     0.002 A 
ENDBRANCH  10  12
ENDBRANCH   9  10
ENDBRANCH   8   9
BRANCH   3  23
ATOM     23  O   UNL d   1      -1.192   2.068   0.019  0.00  0.00    -0.342 OA
BRANCH  23  24
ATOM     24  C   UNL d   1      -2.391   1.291   0.021  0.00  0.00     0.293 C 
BRANCH  24  25
ATOM     25  C   UNL d   1      -3.603   2.225   0.031  0.00  0.00     0.408 C 
ATOM     26  F   UNL d   1      -3.576   3.038  -1.107  0.00  0.00    -0.169 F 
ATOM     27  F   UNL d   1      -4.777   1.464   0.033  0.00  0.00    -0.169 F 
ATOM     28  F   UNL d   1      -3.565   3.026   1.178  0.00  0.00    -0.169 F 
ENDBRANCH  24  25
ENDBRANCH  23  24
ENDBRANCH   3  23
TORSDOF 6
