REMARK  6 active torsions:
REMARK  status: ('A' for Active; 'I' for Inactive)
REMARK    1  A    between atoms: C_2  and  C_3 
REMARK    2  A    between atoms: C_2  and  N_29 
REMARK    3  A    between atoms: C_4  and  N_10 
REMARK       I    between atoms: N_10  and  C_11 
REMARK    4  A    between atoms: C_11  and  C_13 
REMARK    5  A    between atoms: C_19  and  C_20 
REMARK    6  A    between atoms: C_19  and  N_29 
REMARK       I    between atoms: C_20  and  N_22 
ROOT
ATOM      1  C   UNL d   1       7.257   0.138   0.115  0.00  0.00     0.016 A 
ATOM      2  C   UNL d   1       6.098  -0.622   0.032  0.00  0.00     0.044 A 
ATOM      3  C   UNL d   1       6.178  -2.008   0.018  0.00  0.00     0.030 A 
ATOM      4  C   UNL d   1       7.410  -2.628   0.093  0.00  0.00     0.004 A 
ATOM      5  C   UNL d   1       8.563  -1.871   0.182  0.00  0.00     0.024 A 
ATOM      6  C   UNL d   1       8.487  -0.489   0.196  0.00  0.00     0.044 A 
ATOM      7 CL   UNL d   1       9.937   0.459   0.308  0.00  0.00    -0.084 Cl
ENDROOT
BRANCH   1   8
ATOM      8  C   UNL d   1       7.175   1.642   0.124  0.00  0.00     0.277 C 
BRANCH   8   9
ATOM      9  N   UNL d   1       7.079   2.106   1.524  0.00  0.00    -0.063 N 
ATOM     10  C   UNL d   1       5.784   1.695   2.105  0.00  0.00     0.270 C 
ATOM     11  H   UNL d   1       7.839   1.682   2.068  0.00  0.00     0.280 HD
BRANCH   9  12
ATOM     12  C   UNL d   1       7.213   3.577   1.579  0.00  0.00     0.337 C 
BRANCH  12  13
ATOM     13  C   UNL d   1       7.333   4.001   3.020  0.00  0.00     0.245 C 
ATOM     14  O   UNL d   1       7.294   3.169   3.902  0.00  0.00    -0.272 OA
ATOM     15  N   UNL d   1       7.485   5.304   3.329  0.00  0.00    -0.347 N 
ATOM     16  C   UNL d   1       7.604   5.742   4.729  0.00  0.00     0.152 C 
ATOM     17  C   UNL d   1       7.542   6.330   2.276  0.00  0.00     0.152 C 
ATOM     18  C   UNL d   1       6.604   6.879   4.966  0.00  0.00     0.187 C 
ATOM     19  O   UNL d   1       6.790   7.886   3.968  0.00  0.00    -0.388 OA
ATOM     20  C   UNL d   1       6.540   7.440   2.634  0.00  0.00     0.187 C 
ENDBRANCH  12  13
ENDBRANCH   9  12
ENDBRANCH   8   9
ENDBRANCH   1   8
BRANCH   2  21
ATOM     21  N   UNL d   1       4.851   0.008  -0.044  0.00  0.00    -0.322 N 
ATOM     22  C   UNL d   1       3.775  -0.554   0.541  0.00  0.00     0.256 C 
ATOM     23  O   UNL d   1       3.870  -1.648   1.064  0.00  0.00    -0.267 OA
ATOM     24  H   UNL d   1       4.762   0.850  -0.517  0.00  0.00     0.169 HD
BRANCH  22  25
ATOM     25  C   UNL d   1       2.480   0.158   0.547  0.00  0.00     0.032 A 
ATOM     26  C   UNL d   1       2.368   1.414  -0.052  0.00  0.00     0.017 A 
ATOM     27  C   UNL d   1       1.157   2.074  -0.043  0.00  0.00     0.001 A 
ATOM     28  C   UNL d   1       0.054   1.493   0.558  0.00  0.00     0.000 A 
ATOM     29  C   UNL d   1       0.158   0.249   1.153  0.00  0.00     0.001 A 
ATOM     30  C   UNL d   1       1.364  -0.422   1.151  0.00  0.00     0.017 A 
ENDBRANCH  22  25
ENDBRANCH   2  21
TORSDOF 6
