REMARK  8 active torsions:
REMARK  status: ('A' for Active; 'I' for Inactive)
REMARK    1  A    between atoms: C_11  and  O_12 
REMARK    2  A    between atoms: C_14  and  O_35 
REMARK    3  A    between atoms: C_19  and  O_30 
REMARK    4  A    between atoms: C_21  and  C_22 
REMARK    5  A    between atoms: C_21  and  C_28 
REMARK    6  A    between atoms: C_22  and  C_23 
REMARK    7  A    between atoms: C_23  and  C_24 
REMARK    8  A    between atoms: O_30  and  C_31 
ROOT
ATOM      1  C   UNL d   1      10.839   3.526   0.489  0.00  0.00     0.013 C 
ATOM      2  C   UNL d   1       9.972   2.265   0.402  0.00  0.00     0.015 C 
ATOM      3  C   UNL d   1       8.547   2.612   0.005  0.00  0.00     0.000 C 
ATOM      4  C   UNL d   1       7.952   3.720   0.860  0.00  0.00     0.007 C 
ATOM      5  C   UNL d   1       6.598   4.121   0.258  0.00  0.00     0.011 C 
ATOM      6  C   UNL d   1       5.645   2.934   0.336  0.00  0.00    -0.029 C 
ATOM      7  C   UNL d   1       6.222   1.718  -0.383  0.00  0.00     0.032 C 
ATOM      8  C   UNL d   1       7.651   1.368  -0.003  0.00  0.00    -0.033 C 
ATOM      9  C   UNL d   1       7.732   0.631   1.325  0.00  0.00     0.012 C 
ATOM     10  C   UNL d   1       9.176   0.253   1.662  0.00  0.00     0.033 C 
ATOM     11  C   UNL d   1      10.037   1.514   1.727  0.00  0.00     0.122 C 
ATOM     12  C   UNL d   1       8.225   0.452  -1.112  0.00  0.00     0.016 C 
ATOM     13  C   UNL d   1       5.246   0.548  -0.296  0.00  0.00     0.124 C 
ATOM     14  C   UNL d   1       3.944   0.916  -1.048  0.00  0.00     0.042 C 
ATOM     15  C   UNL d   1       4.056   2.349  -1.505  0.00  0.00     0.029 C 
ATOM     16  C   UNL d   1       4.304   3.277  -0.292  0.00  0.00    -0.026 C 
ATOM     17  C   UNL d   1       4.198   4.657  -0.957  0.00  0.00     0.047 C 
ATOM     18  C   UNL d   1       3.010   4.470  -1.942  0.00  0.00     0.163 C 
ATOM     19  C   UNL d   1       2.834   2.967  -2.135  0.00  0.00    -0.033 C 
ATOM     20  C   UNL d   1       1.828   2.339  -2.731  0.00  0.00     0.024 C 
ATOM     21  C   UNL d   1       3.198   3.125   0.759  0.00  0.00     0.016 C 
ATOM     22  C   UNL d   1       5.349   2.634   1.813  0.00  0.00     0.016 C 
ENDROOT
BRANCH  18  23
ATOM     23  O   UNL d   1       1.801   5.050  -1.389  0.00  0.00    -0.312 OA
BRANCH  23  24
ATOM     24  C   UNL d   1       1.601   6.360  -1.602  0.00  0.00     0.255 C 
ATOM     25  O   UNL d   1       2.361   6.980  -2.308  0.00  0.00    -0.266 OA
ATOM     26  C   UNL d   1       0.429   7.058  -0.962  0.00  0.00     0.126 C 
ENDBRANCH  23  24
ENDBRANCH  18  23
BRANCH  20  27
ATOM     27  C   UNL d   1       1.763   0.834  -2.713  0.00  0.00     0.049 C 
BRANCH  27  28
ATOM     28  C   UNL d   1       2.491   0.277  -3.938  0.00  0.00     0.032 C 
BRANCH  28  29
ATOM     29  C   UNL d   1       2.350  -1.223  -3.967  0.00  0.00    -0.024 C 
ATOM     30  C   UNL d   1       1.768  -1.806  -4.986  0.00  0.00    -0.091 C 
ATOM     31  C   UNL d   1       1.147  -0.973  -6.077  0.00  0.00     0.042 C 
ATOM     32  C   UNL d   1       1.720  -3.310  -5.066  0.00  0.00     0.042 C 
ENDBRANCH  28  29
ENDBRANCH  27  28
ENDBRANCH  20  27
BRANCH  20  33
ATOM     33  C   UNL d   1       0.778   3.113  -3.408  0.00  0.00     0.205 C 
ATOM     34  O   UNL d   1       0.888   4.318  -3.521  0.00  0.00    -0.644 OA
ATOM     35  O   UNL d   1      -0.308   2.486  -3.903  0.00  0.00    -0.644 OA
ENDBRANCH  20  33
BRANCH  13  36
ATOM     36  O   UNL d   1       5.766  -0.644  -0.887  0.00  0.00    -0.395 OA
ATOM     37  H   UNL d   1       5.164  -1.399  -0.844  0.00  0.00     0.210 HD
ENDBRANCH  13  36
BRANCH  11  38
ATOM     38  O   UNL d   1       9.606   2.348   2.800  0.00  0.00    -0.395 OA
ATOM     39  H   UNL d   1       9.628   1.919   3.666  0.00  0.00     0.210 HD
ENDBRANCH  11  38
TORSDOF 8
