REMARK  6 active torsions:
REMARK  status: ('A' for Active; 'I' for Inactive)
REMARK    1  A    between atoms: C_2  and  C_3 
REMARK    2  A    between atoms: C_2  and  C_9 
REMARK    3  A    between atoms: C_3  and  N_29 
REMARK    4  A    between atoms: C_9  and  C_10 
REMARK    5  A    between atoms: C_9  and  C_16 
REMARK    6  A    between atoms: C_9  and  C_22 
REMARK       I    between atoms: C_22  and  N_24 
ROOT
ATOM      1  C   UNL d   1      -2.364   0.930   1.279  0.00  0.00     0.100 C 
ENDROOT
BRANCH   1   2
ATOM      2  C   UNL d   1      -1.172   1.794   0.862  0.00  0.00     0.034 C 
ATOM      3  C   UNL d   1      -0.512   1.188  -0.378  0.00  0.00     0.014 C 
BRANCH   2   4
ATOM      4  C   UNL d   1      -1.655   3.210   0.542  0.00  0.00     0.241 C 
BRANCH   4   5
ATOM      5  N   UNL d   1      -0.484   4.054   0.223  0.00  0.00    -0.067 N 
ATOM      6  C   UNL d   1       0.342   4.251   1.432  0.00  0.00     0.261 C 
ATOM      7  C   UNL d   1       1.563   5.097   1.060  0.00  0.00     0.195 C 
ATOM      8  O   UNL d   1       1.124   6.341   0.508  0.00  0.00    -0.388 OA
ATOM      9  C   UNL d   1       0.302   6.198  -0.653  0.00  0.00     0.195 C 
ATOM     10  C   UNL d   1      -0.931   5.363  -0.299  0.00  0.00     0.261 C 
ATOM     11  H   UNL d   1       0.081   3.584  -0.494  0.00  0.00     0.280 HD
ENDBRANCH   4   5
ENDBRANCH   2   4
ENDBRANCH   1   2
BRANCH   1  12
ATOM     12  C   UNL d   1      -2.892   1.410   2.607  0.00  0.00    -0.035 A 
ATOM     13  C   UNL d   1      -4.053   0.869   3.125  0.00  0.00     0.009 A 
ATOM     14  C   UNL d   1      -4.537   1.308   4.343  0.00  0.00     0.001 A 
ATOM     15  C   UNL d   1      -3.860   2.290   5.042  0.00  0.00     0.000 A 
ATOM     16  C   UNL d   1      -2.698   2.831   4.524  0.00  0.00     0.001 A 
ATOM     17  C   UNL d   1      -2.211   2.387   3.309  0.00  0.00     0.009 A 
ENDBRANCH   1  12
BRANCH   1  18
ATOM     18  C   UNL d   1      -3.449   1.036   0.239  0.00  0.00    -0.035 A 
ATOM     19  C   UNL d   1      -3.305   0.396  -0.978  0.00  0.00     0.009 A 
ATOM     20  C   UNL d   1      -4.301   0.492  -1.932  0.00  0.00     0.001 A 
ATOM     21  C   UNL d   1      -5.441   1.228  -1.669  0.00  0.00     0.000 A 
ATOM     22  C   UNL d   1      -5.585   1.868  -0.452  0.00  0.00     0.001 A 
ATOM     23  C   UNL d   1      -4.592   1.767   0.504  0.00  0.00     0.009 A 
ENDBRANCH   1  18
BRANCH   1  24
ATOM     24  C   UNL d   1      -1.924  -0.506   1.403  0.00  0.00     0.238 C 
ATOM     25  O   UNL d   1      -2.361  -1.342   0.640  0.00  0.00    -0.272 OA
ATOM     26  N   UNL d   1      -1.046  -0.862   2.361  0.00  0.00    -0.351 N 
ATOM     27  C   UNL d   1      -0.448  -2.200   2.525  0.00  0.00     0.126 C 
ATOM     28  C   UNL d   1      -0.522   0.021   3.414  0.00  0.00     0.126 C 
ATOM     29  C   UNL d   1       0.875  -1.951   3.291  0.00  0.00     0.021 C 
ATOM     30  C   UNL d   1       0.464  -0.811   4.260  0.00  0.00     0.021 C 
ENDBRANCH   1  24
TORSDOF 6
