REMARK  8 active torsions:
REMARK  status: ('A' for Active; 'I' for Inactive)
REMARK    1  A    between atoms: C_16  and  O_36 
REMARK    2  A    between atoms: C_19  and  C_20 
REMARK    3  A    between atoms: C_19  and  O_27 
REMARK    4  A    between atoms: C_20  and  C_22 
REMARK    5  A    between atoms: C_22  and  O_23 
REMARK    6  A    between atoms: O_23  and  C_24 
REMARK    7  A    between atoms: O_27  and  C_28 
REMARK    8  A    between atoms: C_28  and  C_30 
ROOT
ATOM      1  C   UNL d   1      -3.018   1.106   0.565  0.00  0.00     0.013 C 
ATOM      2  C   UNL d   1      -2.010   0.068   1.064  0.00  0.00     0.026 C 
ATOM      3  C   UNL d   1      -2.755  -1.113   1.747  0.00  0.00     0.013 C 
ATOM      4  C   UNL d   1      -2.629  -2.257   0.728  0.00  0.00     0.005 C 
ATOM      5  C   UNL d   1      -2.897  -3.644   1.204  0.00  0.00     0.035 C 
ATOM      6  C   UNL d   1      -2.759  -3.910   2.699  0.00  0.00     0.013 C 
ATOM      7  C   UNL d   1      -3.485  -5.223   3.002  0.00  0.00     0.036 C 
ATOM      8  C   UNL d   1      -3.514  -6.165   1.825  0.00  0.00    -0.061 C 
ATOM      9  C   UNL d   1      -4.412  -7.168   1.887  0.00  0.00     0.058 C 
ATOM     10  C   UNL d   1      -4.532  -8.101   0.746  0.00  0.00     0.172 C 
ATOM     11  O   UNL d   1      -5.027  -9.217   0.887  0.00  0.00    -0.289 OA
ATOM     12  C   UNL d   1      -4.037  -7.649  -0.572  0.00  0.00     0.052 C 
ATOM     13  C   UNL d   1      -3.146  -6.644  -0.619  0.00  0.00    -0.006 C 
ATOM     14  C   UNL d   1      -2.623  -6.042   0.636  0.00  0.00     0.036 C 
ATOM     15  C   UNL d   1      -2.021  -4.668   0.481  0.00  0.00     0.147 C 
ATOM     16  C   UNL d   1      -1.750  -4.218  -0.940  0.00  0.00     0.160 C 
ATOM     17  C   UNL d   1      -0.840  -2.974  -0.929  0.00  0.00     0.048 C 
ATOM     18  C   UNL d   1      -1.200  -2.042   0.192  0.00  0.00     0.002 C 
ATOM     19  C   UNL d   1      -1.242  -0.538  -0.141  0.00  0.00     0.144 C 
ATOM     20  C   UNL d   1      -0.163  -2.178   1.324  0.00  0.00     0.019 C 
ATOM     21  F   UNL d   1      -0.794  -4.753   1.149  0.00  0.00    -0.238 F 
ATOM     22  C   UNL d   1      -1.409  -6.915   0.997  0.00  0.00     0.028 C 
ENDROOT
BRANCH  19  23
ATOM     23  C   UNL d   1      -1.977  -0.258  -1.419  0.00  0.00     0.187 C 
ATOM     24  O   UNL d   1      -2.838  -1.015  -1.799  0.00  0.00    -0.292 OA
BRANCH  23  25
ATOM     25  C   UNL d   1      -1.641   0.969  -2.227  0.00  0.00     0.260 C 
BRANCH  25  26
ATOM     26  O   UNL d   1      -2.571   1.086  -3.337  0.00  0.00    -0.314 OA
BRANCH  26  27
ATOM     27  C   UNL d   1      -2.407   2.133  -4.160  0.00  0.00     0.255 C 
ATOM     28  O   UNL d   1      -1.517   2.926  -3.960  0.00  0.00    -0.266 OA
ATOM     29  C   UNL d   1      -3.334   2.321  -5.334  0.00  0.00     0.126 C 
ENDBRANCH  26  27
ENDBRANCH  25  26
ENDBRANCH  23  25
ENDBRANCH  19  23
BRANCH  19  30
ATOM     30  O   UNL d   1       0.107  -0.011  -0.193  0.00  0.00    -0.295 OA
BRANCH  30  31
ATOM     31  C   UNL d   1       0.865  -0.369  -1.249  0.00  0.00     0.318 C 
ATOM     32  O   UNL d   1       0.378  -1.020  -2.154  0.00  0.00    -0.257 OA
BRANCH  31  33
ATOM     33  C   UNL d   1       2.276   0.019  -1.304  0.00  0.00     0.149 A 
ATOM     34  O   UNL d   1       2.938   0.737  -0.373  0.00  0.00    -0.317 OA
ATOM     35  C   UNL d   1       4.210   0.898  -0.757  0.00  0.00     0.143 A 
ATOM     36  C   UNL d   1       4.385   0.289  -1.951  0.00  0.00     0.027 A 
ATOM     37  C   UNL d   1       3.152  -0.276  -2.311  0.00  0.00     0.045 A 
ENDBRANCH  31  33
ENDBRANCH  30  31
ENDBRANCH  19  30
BRANCH  16  38
ATOM     38  O   UNL d   1      -2.972  -3.912  -1.616  0.00  0.00    -0.392 OA
ATOM     39  H   UNL d   1      -2.855  -3.638  -2.535  0.00  0.00     0.210 HD
ENDBRANCH  16  38
TORSDOF 8
