REMARK  4 active torsions:
REMARK  status: ('A' for Active; 'I' for Inactive)
REMARK    1  A    between atoms: C_7  and  N_15 
REMARK    2  A    between atoms: C_12  and  N_13 
REMARK    3  A    between atoms: N_13  and  N_14 
REMARK    4  A    between atoms: N_15  and  N_16 
ROOT
ATOM      1  C   UNL d   1      -0.013   1.076   0.008  0.00  0.00     0.001 A 
ATOM      2  C   UNL d   1       1.190   1.778   0.000  0.00  0.00     0.001 A 
ATOM      3  C   UNL d   1       1.208   3.142   0.007  0.00  0.00     0.016 A 
ATOM      4  C   UNL d   1      -0.001   3.844   0.022  0.00  0.00     0.024 A 
ATOM      5  C   UNL d   1      -1.226   3.130   0.031  0.00  0.00     0.024 A 
ATOM      6  C   UNL d   1      -1.209   1.731   0.017  0.00  0.00     0.016 A 
ATOM      7  C   UNL d   1      -2.424   3.880   0.046  0.00  0.00     0.141 A 
ATOM      8  N   UNL d   1      -2.353   5.197   0.051  0.00  0.00    -0.282 N 
ATOM      9  HN  UNL d   1      -3.223   5.729   0.062  1.00  0.00     0.188 HD
ATOM     10  N   UNL d   1      -1.246   5.842   0.043  0.00  0.00    -0.282 N 
ATOM     11  HN  UNL d   1      -1.281   6.862   0.048  1.00  0.00     0.188 HD
ATOM     12  C   UNL d   1      -0.065   5.257   0.029  0.00  0.00     0.141 A 
ENDROOT
BRANCH   7  13
ATOM     13  N   UNL d   1      -3.658   3.240   0.054  0.00  0.00    -0.308 N 
ATOM     14  H   UNL d   1      -3.701   2.271   0.050  0.00  0.00     0.182 HD
BRANCH  13  15
ATOM     15  N   UNL d   1      -4.809   3.976   0.068  0.00  0.00    -0.248 NA
ATOM     16  H   UNL d   1      -4.837   4.617  -0.710  0.00  0.00     0.143 HD
ATOM     17  H   UNL d   1      -5.621   3.377   0.073  0.00  0.00     0.143 HD
ENDBRANCH  13  15
ENDBRANCH   7  13
BRANCH  12  18
ATOM     18  N   UNL d   1       1.099   6.016   0.021  0.00  0.00    -0.308 N 
ATOM     19  H   UNL d   1       1.964   5.578   0.011  0.00  0.00     0.182 HD
BRANCH  18  20
ATOM     20  N   UNL d   1       1.025   7.380   0.028  0.00  0.00    -0.248 NA
ATOM     21  H   UNL d   1       1.946   7.793   0.021  0.00  0.00     0.143 HD
ATOM     22  H   UNL d   1       0.472   7.716  -0.746  0.00  0.00     0.143 HD
ENDBRANCH  18  20
ENDBRANCH  12  18
TORSDOF 4
