REMARK  7 active torsions:
REMARK  status: ('A' for Active; 'I' for Inactive)
REMARK    1  A    between atoms: C_2  and  C_3 
REMARK    2  A    between atoms: C_3  and  C_4 
REMARK    3  A    between atoms: C_3  and  C_28 
REMARK    4  A    between atoms: C_4  and  C_5 
REMARK    5  A    between atoms: C_5  and  C_6 
REMARK    6  A    between atoms: C_6  and  C_8 
REMARK    7  A    between atoms: C_23  and  O_25 
ROOT
ATOM      1  C   UNL d   1       0.518   3.558  -0.697  0.00  0.00    -0.002 C 
ATOM      2  C   UNL d   1      -0.820   3.101  -0.057  0.00  0.00     0.006 C 
ATOM      3  C   UNL d   1      -1.170   1.732  -0.699  0.00  0.00     0.006 C 
ATOM      4  C   UNL d   1       0.120   1.335  -1.434  0.00  0.00    -0.001 C 
ATOM      5  C   UNL d   1       0.618   2.692  -1.967  0.00  0.00    -0.036 C 
ATOM      6  C   UNL d   1       1.977   2.588  -2.603  0.00  0.00     0.010 C 
ATOM      7  C   UNL d   1       2.169   1.222  -3.283  0.00  0.00     0.007 C 
ATOM      8  C   UNL d   1       0.835   0.642  -3.727  0.00  0.00     0.003 C 
ATOM      9  C   UNL d   1      -0.006   0.286  -2.494  0.00  0.00    -0.001 C 
ATOM     10  C   UNL d   1      -1.435   0.032  -2.976  0.00  0.00     0.033 C 
ATOM     11  C   UNL d   1      -1.364  -1.106  -3.964  0.00  0.00    -0.023 C 
ATOM     12  C   UNL d   1      -0.300  -1.384  -4.654  0.00  0.00    -0.072 C 
ATOM     13  C   UNL d   1       0.987  -0.598  -4.595  0.00  0.00    -0.017 C 
ATOM     14  C   UNL d   1       2.102  -1.515  -4.110  0.00  0.00     0.016 C 
ATOM     15  C   UNL d   1       1.610  -2.961  -4.047  0.00  0.00     0.033 C 
ATOM     16  C   UNL d   1       0.944  -3.395  -5.348  0.00  0.00     0.122 C 
ATOM     17  C   UNL d   1      -0.325  -2.572  -5.601  0.00  0.00     0.066 C 
ATOM     18  C   UNL d   1       1.327  -0.128  -6.015  0.00  0.00     0.020 C 
ATOM     19  C   UNL d   1      -0.380   3.305  -2.966  0.00  0.00     0.016 C 
ENDROOT
BRANCH   1  20
ATOM     20  C   UNL d   1       1.670   3.305   0.267  0.00  0.00    -0.014 C 
ATOM     21  C   UNL d   1       1.623   1.852   0.746  0.00  0.00     0.010 C 
BRANCH  20  22
ATOM     22  C   UNL d   1       1.544   4.242   1.470  0.00  0.00     0.005 C 
BRANCH  22  23
ATOM     23  C   UNL d   1       2.774   4.089   2.367  0.00  0.00     0.005 C 
BRANCH  23  24
ATOM     24  C   UNL d   1       2.624   4.986   3.597  0.00  0.00    -0.012 C 
BRANCH  24  25
ATOM     25  C   UNL d   1       3.911   4.939   4.423  0.00  0.00     0.000 C 
ATOM     26  C   UNL d   1       3.833   5.974   5.547  0.00  0.00     0.005 C 
ENDBRANCH  24  25
BRANCH  24  27
ATOM     27  C   UNL d   1       1.453   4.491   4.449  0.00  0.00    -0.019 C 
ATOM     28  C   UNL d   1       1.917   3.326   5.325  0.00  0.00     0.010 C 
ATOM     29  C   UNL d   1       0.952   5.631   5.338  0.00  0.00     0.010 C 
ENDBRANCH  24  27
ENDBRANCH  23  24
ENDBRANCH  22  23
ENDBRANCH  20  22
ENDBRANCH   1  20
BRANCH  16  30
ATOM     30  O   UNL d   1       1.853  -3.232  -6.438  0.00  0.00    -0.395 OA
ATOM     31  H   UNL d   1       1.499  -3.517  -7.292  0.00  0.00     0.210 HD
ENDBRANCH  16  30
TORSDOF 7
