REMARK  2 active torsions:
REMARK  status: ('A' for Active; 'I' for Inactive)
REMARK    1  A    between atoms: C_9  and  O_20 
REMARK    2  A    between atoms: C_18  and  O_19 
ROOT
ATOM      1  C   UNL d   1      -0.816   3.136  -1.223  0.00  0.00     0.018 C 
ATOM      2  C   UNL d   1      -0.570   1.630  -1.335  0.00  0.00    -0.014 C 
ATOM      3  C   UNL d   1      -1.879   0.912  -1.601  0.00  0.00     0.013 C 
ATOM      4  C   UNL d   1      -2.860   1.333  -0.494  0.00  0.00     0.010 C 
ATOM      5  C   UNL d   1      -2.311   1.026   0.893  0.00  0.00     0.023 C 
ATOM      6  C   UNL d   1      -2.320  -0.456   1.145  0.00  0.00    -0.047 A 
ATOM      7  C   UNL d   1      -3.392  -1.190   0.652  0.00  0.00     0.011 A 
ATOM      8  C   UNL d   1      -3.465  -2.551   0.856  0.00  0.00     0.037 A 
ATOM      9  C   UNL d   1      -2.459  -3.197   1.560  0.00  0.00     0.066 A 
ATOM     10  C   UNL d   1      -1.388  -2.467   2.048  0.00  0.00     0.044 A 
ATOM     11  C   UNL d   1      -1.316  -1.097   1.838  0.00  0.00    -0.049 A 
ATOM     12  C   UNL d   1      -0.116  -0.367   2.382  0.00  0.00     0.039 C 
ATOM     13  C   UNL d   1      -0.397   1.132   2.472  0.00  0.00     0.010 C 
ATOM     14  C   UNL d   1      -0.907   1.596   1.123  0.00  0.00    -0.001 C 
ATOM     15  C   UNL d   1      -0.013   1.086   0.008  0.00  0.00     0.001 C 
ATOM     16  C   UNL d   1       1.417   1.640  -0.003  0.00  0.00     0.008 C 
ATOM     17  C   UNL d   1       1.862   1.425  -1.475  0.00  0.00     0.033 C 
ATOM     18  C   UNL d   1       0.564   1.363  -2.319  0.00  0.00     0.126 C 
ENDROOT
BRANCH   9  19
ATOM     19  O   UNL d   1      -2.524  -4.538   1.769  0.00  0.00    -0.361 OA
ATOM     20  H   UNL d   1      -2.104  -5.065   1.076  0.00  0.00     0.217 HD
ENDBRANCH   9  19
BRANCH  18  21
ATOM     21  O   UNL d   1       0.585   2.368  -3.334  0.00  0.00    -0.395 OA
ATOM     22  H   UNL d   1       1.311   2.274  -3.966  0.00  0.00     0.210 HD
ENDBRANCH  18  21
TORSDOF 2
