REMARK  12 active torsions:
REMARK  status: ('A' for Active; 'I' for Inactive)
REMARK    1  A    between atoms: C_2  and  C_3 
REMARK    2  A    between atoms: C_2  and  N_41 
REMARK    3  A    between atoms: C_6  and  N_39 
REMARK    4  A    between atoms: C_7  and  O_9 
REMARK    5  A    between atoms: O_9  and  C_10 
REMARK    6  A    between atoms: C_11  and  N_37 
REMARK    7  A    between atoms: C_12  and  O_24 
REMARK    8  A    between atoms: C_13  and  O_22 
REMARK    9  A    between atoms: C_14  and  N_17 
REMARK   10  A    between atoms: C_15  and  O_16 
REMARK       I    between atoms: N_17  and  C_19 
REMARK   11  A    between atoms: C_19  and  C_21 
REMARK   12  A    between atoms: C_21  and  N_35 
ROOT
ATOM      1  C   UNL d   1       2.406   2.541  -3.307  0.00  0.00     0.188 C 
ATOM      2  C   UNL d   1       2.753   2.787  -4.777  0.00  0.00     0.246 C 
ATOM      3  C   UNL d   1       3.619   1.638  -5.295  0.00  0.00     0.182 C 
ATOM      4  C   UNL d   1       4.908   1.560  -4.474  0.00  0.00     0.177 C 
ATOM      5  C   UNL d   1       4.561   1.313  -3.004  0.00  0.00     0.149 C 
ATOM      6  C   UNL d   1       3.694   2.462  -2.485  0.00  0.00     0.174 C 
ENDROOT
BRANCH   1   7
ATOM      7  O   UNL d   1       1.689   1.311  -3.186  0.00  0.00    -0.349 OA
BRANCH   7   8
ATOM      8  C   UNL d   1       0.294   1.421  -3.477  0.00  0.00     0.291 C 
ATOM      9  C   UNL d   1      -0.396   0.087  -3.179  0.00  0.00     0.238 C 
ATOM     10  C   UNL d   1      -0.256  -0.229  -1.687  0.00  0.00     0.040 C 
ATOM     11  C   UNL d   1      -0.848   0.927  -0.874  0.00  0.00     0.036 C 
ATOM     12  C   UNL d   1      -0.140   2.228  -1.261  0.00  0.00     0.154 C 
ATOM     13  O   UNL d   1      -0.283   2.446  -2.666  0.00  0.00    -0.352 OA
BRANCH   9  14
ATOM     14  N   UNL d   1       0.258  -0.979  -3.958  0.00  0.00    -0.070 N 
ATOM     15  H   UNL d   1      -0.204  -1.870  -3.788  0.00  0.00     0.274 HD
ATOM     16  H   UNL d   1       0.216  -0.760  -4.952  0.00  0.00     0.274 HD
ATOM     17  H   UNL d   1       1.241  -1.051  -3.672  0.00  0.00     0.274 HD
ENDBRANCH   9  14
BRANCH  12  18
ATOM     18  C   UNL d   1      -0.767   3.396  -0.497  0.00  0.00     0.208 C 
ATOM     19  C   UNL d   1      -0.060   4.697  -0.885  0.00  0.00     0.042 C 
BRANCH  18  20
ATOM     20  N   UNL d   1      -0.630   3.193   0.956  0.00  0.00    -0.073 N 
ATOM     21  H   UNL d   1      -1.132   2.353   1.240  0.00  0.00     0.274 HD
ATOM     22  H   UNL d   1       0.353   3.101   1.205  0.00  0.00     0.274 HD
ATOM     23  H   UNL d   1      -1.026   4.002   1.449  0.00  0.00     0.274 HD
ENDBRANCH  18  20
ENDBRANCH  12  18
ENDBRANCH   7   8
ENDBRANCH   1   7
BRANCH   6  24
ATOM     24  O   UNL d   1       3.371   2.232  -1.113  0.00  0.00    -0.391 OA
ATOM     25  H   UNL d   1       2.822   2.923  -0.717  0.00  0.00     0.210 HD
ENDBRANCH   6  24
BRANCH   2  26
ATOM     26  N   UNL d   1       1.501   2.876  -5.550  0.00  0.00    -0.070 N 
ATOM     27  H   UNL d   1       1.673   3.341  -6.439  0.00  0.00     0.274 HD
ATOM     28  H   UNL d   1       1.130   1.943  -5.721  0.00  0.00     0.274 HD
ATOM     29  H   UNL d   1       0.812   3.418  -5.015  0.00  0.00     0.274 HD
ENDBRANCH   2  26
BRANCH   5  30
ATOM     30  N   UNL d   1       3.826   0.052  -2.881  0.00  0.00    -0.345 N 
ATOM     31  C   UNL d   1       2.584   0.002  -2.104  0.00  0.00     0.153 C 
ATOM     32  C   UNL d   1       4.291  -1.061  -3.481  0.00  0.00     0.245 C 
ATOM     33  O   UNL d   1       5.319  -1.019  -4.123  0.00  0.00    -0.272 OA
BRANCH  32  34
ATOM     34  C   UNL d   1       3.534  -2.358  -3.353  0.00  0.00     0.332 C 
BRANCH  34  35
ATOM     35  N   UNL d   1       4.241  -3.403  -4.115  0.00  0.00    -0.071 N 
ATOM     36  H   UNL d   1       5.195  -3.501  -3.772  0.00  0.00     0.274 HD
ATOM     37  H   UNL d   1       3.755  -4.293  -4.022  0.00  0.00     0.274 HD
ATOM     38  H   UNL d   1       4.268  -3.138  -5.107  0.00  0.00     0.274 HD
ENDBRANCH  34  35
ENDBRANCH  32  34
ENDBRANCH   5  30
BRANCH   3  39
ATOM     39  O   UNL d   1       2.902   0.408  -5.175  0.00  0.00    -0.391 OA
ATOM     40  H   UNL d   1       2.118   0.353  -5.739  0.00  0.00     0.210 HD
ENDBRANCH   3  39
BRANCH   4  41
ATOM     41  O   UNL d   1       5.717   0.486  -4.959  0.00  0.00    -0.386 OA
ATOM     42  C   UNL d   1       6.629   0.867  -5.991  0.00  0.00     0.202 C 
ENDBRANCH   4  41
TORSDOF 12
