REMARK  6 active torsions:
REMARK  status: ('A' for Active; 'I' for Inactive)
REMARK    1  A    between atoms: C_4  and  C_26 
REMARK    2  A    between atoms: C_5  and  C_7 
REMARK       I    between atoms: C_7  and  N_9 
REMARK    3  A    between atoms: N_9  and  C_10 
REMARK    4  A    between atoms: C_13  and  S_16 
REMARK    5  A    between atoms: S_16  and  N_19 
REMARK    6  A    between atoms: N_19  and  C_20 
ROOT
ATOM      1  C   UNL d   1      -2.555   1.078  -0.308  0.00  0.00     0.035 A 
ATOM      2  C   UNL d   1      -2.629  -0.307  -0.389  0.00  0.00     0.031 A 
ATOM      3  C   UNL d   1      -3.857  -0.924  -0.528  0.00  0.00     0.027 A 
ATOM      4  C   UNL d   1      -5.011  -0.165  -0.597  0.00  0.00     0.080 A 
ATOM      5  C   UNL d   1      -4.940   1.214  -0.522  0.00  0.00     0.027 A 
ATOM      6  C   UNL d   1      -3.716   1.838  -0.378  0.00  0.00     0.031 A 
ENDROOT
BRANCH   1   7
ATOM      7  N   UNL d   1      -1.315   1.706  -0.162  0.00  0.00    -0.323 N 
ATOM      8  C   UNL d   1      -1.237   2.919   0.421  0.00  0.00     0.257 C 
ATOM      9  O   UNL d   1      -2.228   3.419   0.916  0.00  0.00    -0.267 OA
ATOM     10  H   UNL d   1      -0.509   1.269  -0.480  0.00  0.00     0.169 HD
BRANCH   8  11
ATOM     11  C   UNL d   1       0.054   3.638   0.464  0.00  0.00     0.049 A 
ATOM     12  C   UNL d   1       0.585   4.068   1.695  0.00  0.00     0.056 A 
ATOM     13  C   UNL d   1       1.802   4.744   1.721  0.00  0.00     0.019 A 
ATOM     14  C   UNL d   1       2.482   4.989   0.542  0.00  0.00     0.001 A 
ATOM     15  C   UNL d   1       1.960   4.565  -0.667  0.00  0.00     0.001 A 
ATOM     16  C   UNL d   1       0.756   3.888  -0.712  0.00  0.00     0.018 A 
BRANCH  12  17
ATOM     17  C   UNL d   1      -0.146   3.804   2.953  0.00  0.00     0.210 C 
ATOM     18  O   UNL d   1      -1.153   3.125   2.938  0.00  0.00    -0.644 OA
ATOM     19  O   UNL d   1       0.305   4.315   4.114  0.00  0.00    -0.644 OA
ENDBRANCH  12  17
ENDBRANCH   8  11
ENDBRANCH   1   7
BRANCH   4  20
ATOM     20  S   UNL d   1      -6.574  -0.956  -0.780  0.00  0.00     0.264 S 
ATOM     21  O   UNL d   1      -6.423  -2.276  -0.278  0.00  0.00    -0.200 OA
ATOM     22  O   UNL d   1      -7.548  -0.054  -0.272  0.00  0.00    -0.200 OA
BRANCH  20  23
ATOM     23  N   UNL d   1      -6.863  -1.098  -2.405  0.00  0.00    -0.260 N 
ATOM     24  H   UNL d   1      -7.602  -0.618  -2.810  0.00  0.00     0.181 HD
BRANCH  23  25
ATOM     25  C   UNL d   1      -6.048  -1.903  -3.186  0.00  0.00     0.158 A 
ATOM     26  S   UNL d   1      -6.138  -2.218  -4.891  0.00  0.00    -0.064 SA
ATOM     27  C   UNL d   1      -4.738  -3.323  -4.998  0.00  0.00     0.070 A 
ATOM     28  C   UNL d   1      -4.334  -3.344  -3.705  0.00  0.00     0.097 A 
ATOM     29  N   UNL d   1      -5.003  -2.623  -2.825  0.00  0.00    -0.345 N 
ATOM     30  HN  UNL d   1      -4.706  -2.621  -1.849  1.00  0.00     0.167 HD
ENDBRANCH  23  25
ENDBRANCH  20  23
ENDBRANCH   4  20
TORSDOF 6
