REMARK  5 active torsions:
REMARK  status: ('A' for Active; 'I' for Inactive)
REMARK    1  A    between atoms: C_2  and  N_3 
REMARK    2  A    between atoms: N_3  and  C_4 
REMARK    3  A    between atoms: N_3  and  S_6 
REMARK    4  A    between atoms: S_6  and  C_9 
REMARK    5  A    between atoms: C_12  and  C_15 
ROOT
ATOM      1  C   UNL d   1      -3.720   3.284   0.037  0.00  0.00     0.079 A 
ATOM      2  C   UNL d   1      -3.705   1.900   0.030  0.00  0.00     0.026 A 
ATOM      3  C   UNL d   1      -2.505   1.220   0.021  0.00  0.00     0.020 A 
ATOM      4  C   UNL d   1      -1.304   1.932   0.019  0.00  0.00     0.040 A 
ATOM      5  C   UNL d   1      -1.326   3.328   0.032  0.00  0.00     0.020 A 
ATOM      6  C   UNL d   1      -2.534   3.995   0.036  0.00  0.00     0.026 A 
ENDROOT
BRANCH   1   7
ATOM      7  S   UNL d   1      -5.258   4.144   0.049  0.00  0.00     0.260 S 
ATOM      8  O   UNL d   1      -5.007   5.432  -0.496  0.00  0.00    -0.200 OA
ATOM      9  O   UNL d   1      -6.223   3.258  -0.503  0.00  0.00    -0.200 OA
BRANCH   7  10
ATOM     10  N   UNL d   1      -5.679   4.374   1.634  0.00  0.00    -0.307 N 
BRANCH  10  11
ATOM     11  C   UNL d   1      -5.245   5.583   2.338  0.00  0.00     0.131 C 
ATOM     12  C   UNL d   1      -6.353   6.637   2.272  0.00  0.00     0.027 C 
ENDBRANCH  10  11
BRANCH  10  13
ATOM     13  C   UNL d   1      -6.484   3.369   2.332  0.00  0.00     0.131 C 
ATOM     14  C   UNL d   1      -5.561   2.417   3.095  0.00  0.00     0.027 C 
ENDBRANCH  10  13
ENDBRANCH   7  10
ENDBRANCH   1   7
BRANCH   4  15
ATOM     15  C   UNL d   1      -0.014   1.210   0.009  0.00  0.00     0.209 C 
ATOM     16  O   UNL d   1       0.002  -0.004   0.002  0.00  0.00    -0.644 OA
ATOM     17  O   UNL d   1       1.143   1.900   0.001  0.00  0.00    -0.644 OA
ENDBRANCH   4  15
TORSDOF 5
