REMARK  2 active torsions:
REMARK  status: ('A' for Active; 'I' for Inactive)
REMARK    1  A    between atoms: C_9  and  O_20 
REMARK    2  A    between atoms: O_20  and  S_21 
ROOT
ATOM      1  C   UNL d   1       0.196   0.230  -2.469  0.00  0.00     0.024 C 
ATOM      2  C   UNL d   1       0.785  -0.433  -1.223  0.00  0.00     0.021 C 
ATOM      3  C   UNL d   1       0.002  -0.004   0.002  0.00  0.00     0.018 C 
ATOM      4  C   UNL d   1      -0.019   1.533   0.011  0.00  0.00     0.011 C 
ATOM      5  C   UNL d   1       1.389   2.115   0.000  0.00  0.00     0.024 C 
ATOM      6  C   UNL d   1       2.060   1.877   1.325  0.00  0.00    -0.047 A 
ATOM      7  C   UNL d   1       1.282   1.981   2.472  0.00  0.00     0.011 A 
ATOM      8  C   UNL d   1       1.836   1.782   3.718  0.00  0.00     0.039 A 
ATOM      9  C   UNL d   1       3.184   1.473   3.830  0.00  0.00     0.092 A 
ATOM     10  C   UNL d   1       3.959   1.368   2.688  0.00  0.00     0.045 A 
ATOM     11  C   UNL d   1       3.398   1.568   1.435  0.00  0.00    -0.049 A 
ATOM     12  C   UNL d   1       4.298   1.434   0.234  0.00  0.00     0.039 C 
ATOM     13  C   UNL d   1       3.667   2.099  -0.987  0.00  0.00     0.010 C 
ATOM     14  C   UNL d   1       2.239   1.562  -1.147  0.00  0.00    -0.000 C 
ATOM     15  C   UNL d   1       2.248   0.048  -1.029  0.00  0.00     0.006 C 
ATOM     16  C   UNL d   1       2.959  -0.700  -2.165  0.00  0.00     0.013 C 
ATOM     17  C   UNL d   1       2.286  -2.099  -2.120  0.00  0.00     0.079 C 
ATOM     18  C   UNL d   1       0.927  -1.909  -1.456  0.00  0.00     0.135 C 
ATOM     19  O   UNL d   1       0.128  -2.769  -1.174  0.00  0.00    -0.297 OA
ENDROOT
BRANCH   9  20
ATOM     20  O   UNL d   1       3.740   1.276   5.054  0.00  0.00    -0.214 OA
BRANCH  20  21
ATOM     21  S   UNL d   1       3.690  -0.169   5.531  0.00  0.00     0.257 S 
ATOM     22  O   UNL d   1       4.114  -0.164   6.888  0.00  0.00    -0.572 OA
ATOM     23  O   UNL d   1       2.430  -0.686   5.128  0.00  0.00    -0.572 OA
ATOM     24  O   UNL d   1       4.746  -0.937   4.749  0.00  0.00    -0.572 OA
ENDBRANCH  20  21
ENDBRANCH   9  20
TORSDOF 2
