REMARK  9 active torsions:
REMARK  status: ('A' for Active; 'I' for Inactive)
REMARK    1  A    between atoms: C_2  and  N_25 
REMARK    2  A    between atoms: C_5  and  C_6 
REMARK    3  A    between atoms: C_5  and  N_25 
REMARK    4  A    between atoms: C_6  and  C_7 
REMARK    5  A    between atoms: C_6  and  O_21 
REMARK    6  A    between atoms: C_7  and  O_8 
REMARK    7  A    between atoms: O_8  and  C_9 
REMARK    8  A    between atoms: C_16  and  O_20 
REMARK    9  A    between atoms: C_17  and  O_19 
ROOT
ATOM      1  C   UNL d   1      -1.219   1.755   0.017  0.00  0.00     0.075 A 
ATOM      2  C   UNL d   1      -0.013   1.076   0.008  0.00  0.00     0.037 A 
ATOM      3  C   UNL d   1       1.172   1.786   0.001  0.00  0.00     0.003 A 
ATOM      4  C   UNL d   1       1.146   3.165   0.005  0.00  0.00     0.008 A 
ATOM      5  C   UNL d   1      -0.062   3.851   0.021  0.00  0.00    -0.046 A 
ATOM      6  C   UNL d   1      -1.245   3.148   0.031  0.00  0.00    -0.016 A 
ATOM      7  C   UNL d   1      -2.591   3.825   0.057  0.00  0.00     0.076 C 
ATOM      8  C   UNL d   1      -2.464   5.287  -0.367  0.00  0.00     0.151 C 
ATOM      9  C   UNL d   1      -1.354   5.938   0.466  0.00  0.00     0.151 C 
ATOM     10  C   UNL d   1      -0.014   5.357   0.019  0.00  0.00     0.073 C 
ENDROOT
BRANCH   1  11
ATOM     11  O   UNL d   1      -2.386   1.058   0.018  0.00  0.00    -0.348 OA
BRANCH  11  12
ATOM     12  C   UNL d   1      -2.290  -0.368   0.009  0.00  0.00     0.209 C 
BRANCH  12  13
ATOM     13  C   UNL d   1      -3.695  -0.973   0.011  0.00  0.00     0.168 C 
BRANCH  13  14
ATOM     14  C   UNL d   1      -3.594  -2.496   0.127  0.00  0.00     0.267 C 
BRANCH  14  15
ATOM     15  N   UNL d   1      -4.952  -3.071   0.129  0.00  0.00    -0.065 N 
ATOM     16  H   UNL d   1      -5.479  -2.695   0.926  0.00  0.00     0.278 HD
ATOM     17  H   UNL d   1      -5.428  -2.819  -0.746  0.00  0.00     0.278 HD
BRANCH  15  18
ATOM     18  C   UNL d   1      -4.886  -4.541   0.239  0.00  0.00     0.115 C 
ATOM     19  C   UNL d   1      -4.183  -4.927   1.543  0.00  0.00     0.045 C 
ATOM     20  C   UNL d   1      -6.306  -5.109   0.238  0.00  0.00     0.045 C 
ATOM     21  C   UNL d   1      -4.107  -5.111  -0.948  0.00  0.00     0.045 C 
ENDBRANCH  15  18
ENDBRANCH  14  15
ENDBRANCH  13  14
BRANCH  13  22
ATOM     22  O   UNL d   1      -4.363  -0.631  -1.205  0.00  0.00    -0.392 OA
ATOM     23  H   UNL d   1      -3.917  -0.949  -2.002  0.00  0.00     0.210 HD
ENDBRANCH  13  22
ENDBRANCH  12  13
ENDBRANCH  11  12
ENDBRANCH   1  11
BRANCH   8  24
ATOM     24  O   UNL d   1      -3.701   5.964  -0.133  0.00  0.00    -0.393 OA
ATOM     25  H   UNL d   1      -4.447   5.603  -0.630  0.00  0.00     0.210 HD
ENDBRANCH   8  24
BRANCH   9  26
ATOM     26  O   UNL d   1      -1.359   7.351   0.256  0.00  0.00    -0.393 OA
ATOM     27  H   UNL d   1      -0.669   7.823   0.742  0.00  0.00     0.210 HD
ENDBRANCH   9  26
TORSDOF 9
