REMARK  2 active torsions:
REMARK  status: ('A' for Active; 'I' for Inactive)
REMARK    1  A    between atoms: C_9  and  O_20 
REMARK    2  A    between atoms: O_20  and  S_21 
ROOT
ATOM      1  C   UNL d   1      -3.157   2.369  -1.575  0.00  0.00     0.024 C 
ATOM      2  C   UNL d   1      -1.925   2.453  -0.673  0.00  0.00     0.021 C 
ATOM      3  C   UNL d   1      -1.574   3.901  -0.322  0.00  0.00     0.018 C 
ATOM      4  C   UNL d   1      -2.609   4.488   0.633  0.00  0.00     0.011 C 
ATOM      5  C   UNL d   1      -2.579   3.692   1.944  0.00  0.00     0.024 C 
ATOM      6  C   UNL d   1      -3.561   4.310   2.908  0.00  0.00    -0.047 A 
ATOM      7  C   UNL d   1      -3.171   5.462   3.578  0.00  0.00     0.011 A 
ATOM      8  C   UNL d   1      -4.024   6.080   4.467  0.00  0.00     0.039 A 
ATOM      9  C   UNL d   1      -5.285   5.546   4.693  0.00  0.00     0.092 A 
ATOM     10  C   UNL d   1      -5.673   4.397   4.026  0.00  0.00     0.045 A 
ATOM     11  C   UNL d   1      -4.809   3.774   3.134  0.00  0.00    -0.049 A 
ATOM     12  C   UNL d   1      -5.290   2.517   2.458  0.00  0.00     0.039 C 
ATOM     13  C   UNL d   1      -4.434   2.201   1.234  0.00  0.00     0.010 C 
ATOM     14  C   UNL d   1      -2.953   2.246   1.648  0.00  0.00    -0.000 C 
ATOM     15  C   UNL d   1      -2.080   1.613   0.608  0.00  0.00     0.006 C 
ATOM     16  C   UNL d   1      -0.624   1.436   1.086  0.00  0.00     0.013 C 
ATOM     17  C   UNL d   1       0.155   1.240  -0.235  0.00  0.00     0.079 C 
ATOM     18  C   UNL d   1      -0.687   1.851  -1.337  0.00  0.00     0.135 C 
ATOM     19  O   UNL d   1      -0.429   1.861  -2.517  0.00  0.00    -0.297 OA
ENDROOT
BRANCH   9  20
ATOM     20  O   UNL d   1      -6.136   6.150   5.564  0.00  0.00    -0.214 OA
BRANCH  20  21
ATOM     21  S   UNL d   1      -6.012   5.652   6.996  0.00  0.00     0.257 S 
ATOM     22  O   UNL d   1      -7.094   6.222   7.720  0.00  0.00    -0.572 OA
ATOM     23  O   UNL d   1      -5.801   4.249   6.922  0.00  0.00    -0.572 OA
ATOM     24  O   UNL d   1      -4.738   6.253   7.573  0.00  0.00    -0.572 OA
ENDBRANCH  20  21
ENDBRANCH   9  20
TORSDOF 2
