REMARK  4 active torsions:
REMARK  status: ('A' for Active; 'I' for Inactive)
REMARK    1  A    between atoms: C_3  and  C_4 
REMARK    2  A    between atoms: C_4  and  C_5 
REMARK    3  A    between atoms: N_8  and  C_18 
REMARK    4  A    between atoms: N_9  and  C_12 
ROOT
ATOM      1  C   UNL d   1      -4.477   0.755   0.502  0.00  0.00     0.177 A 
ATOM      2  C   UNL d   1      -3.938  -0.621   0.833  0.00  0.00     0.257 A 
ATOM      3  O   UNL d   1      -3.517  -1.000   1.905  0.00  0.00    -0.270 OA
ATOM      4  N   UNL d   1      -4.021  -1.340  -0.307  0.00  0.00    -0.214 N 
ATOM      5  N   UNL d   1      -4.556  -0.591  -1.351  0.00  0.00    -0.214 N 
ATOM      6  C   UNL d   1      -4.855   0.663  -0.961  0.00  0.00     0.257 A 
ATOM      7  O   UNL d   1      -5.333   1.543  -1.646  0.00  0.00    -0.270 OA
ENDROOT
BRANCH   4   8
ATOM      8  C   UNL d   1      -3.618  -2.675  -0.424  0.00  0.00     0.060 A 
ATOM      9  C   UNL d   1      -2.363  -3.065   0.025  0.00  0.00     0.031 A 
ATOM     10  C   UNL d   1      -1.969  -4.384  -0.092  0.00  0.00     0.002 A 
ATOM     11  C   UNL d   1      -2.822  -5.315  -0.654  0.00  0.00     0.000 A 
ATOM     12  C   UNL d   1      -4.073  -4.930  -1.102  0.00  0.00     0.002 A 
ATOM     13  C   UNL d   1      -4.475  -3.614  -0.983  0.00  0.00     0.031 A 
ENDBRANCH   4   8
BRANCH   5  14
ATOM     14  C   UNL d   1      -4.758  -1.080  -2.646  0.00  0.00     0.060 A 
ATOM     15  C   UNL d   1      -5.975  -0.877  -3.284  0.00  0.00     0.031 A 
ATOM     16  C   UNL d   1      -6.172  -1.362  -4.562  0.00  0.00     0.002 A 
ATOM     17  C   UNL d   1      -5.159  -2.048  -5.207  0.00  0.00     0.000 A 
ATOM     18  C   UNL d   1      -3.947  -2.253  -4.574  0.00  0.00     0.002 A 
ATOM     19  C   UNL d   1      -3.741  -1.766  -3.298  0.00  0.00     0.031 A 
ENDBRANCH   5  14
BRANCH   1  20
ATOM     20  C   UNL d   1      -3.396   1.818   0.711  0.00  0.00     0.051 C 
BRANCH  20  21
ATOM     21  C   UNL d   1      -3.092   1.943   2.182  0.00  0.00    -0.023 C 
ATOM     22  C   UNL d   1      -1.886   1.686   2.625  0.00  0.00    -0.091 C 
ATOM     23  C   UNL d   1      -0.773   1.391   1.654  0.00  0.00     0.042 C 
ATOM     24  C   UNL d   1      -1.613   1.686   4.107  0.00  0.00     0.042 C 
ENDBRANCH  20  21
ENDBRANCH   1  20
TORSDOF 4
