REMARK  11 active torsions:
REMARK  status: ('A' for Active; 'I' for Inactive)
REMARK    1  A    between atoms: C_1  and  C_2 
REMARK    2  A    between atoms: C_1  and  C_11 
REMARK    3  A    between atoms: C_2  and  C_3 
REMARK       I    between atoms: C_3  and  N_5 
REMARK    4  A    between atoms: N_5  and  C_6 
REMARK    5  A    between atoms: C_6  and  C_7 
REMARK    6  A    between atoms: C_6  and  C_9 
REMARK    7  A    between atoms: C_7  and  S_8 
REMARK       I    between atoms: C_9  and  N_21 
REMARK    8  A    between atoms: C_11  and  C_12 
REMARK    9  A    between atoms: C_11  and  N_19 
REMARK   10  A    between atoms: N_21  and  CA_22 
REMARK   11  A    between atoms: CA_22  and  C_23 
ROOT
ATOM      1  C   UNK d   1       1.140   2.151   0.003  0.00  0.00     0.218 C 
ATOM      2  O   UNK d   1       2.199   1.558  -0.011  0.00  0.00    -0.274 OA
ATOM      3  N   UNK d   1      -0.018   1.461   0.010  0.00  0.00    -0.347 N 
ATOM      4  H   UNK d   1      -0.864   1.934   0.017  0.00  0.00     0.163 HD
ENDROOT
BRANCH   3   5
ATOM      5  C   UNK d   1       0.002  -0.004   0.002  0.00  0.00     0.185 C 
BRANCH   5   6
ATOM      6  C   UNK d   1       0.121  -0.505  -1.439  0.00  0.00     0.105 C 
BRANCH   6   7
ATOM      7  S   UNK d   1       1.723   0.001  -2.124  0.00  0.00    -0.180 SA
ATOM      8  H   UNK d   1       1.710  -0.490  -3.377  0.00  0.00     0.101 HD
ENDBRANCH   6   7
ENDBRANCH   5   6
BRANCH   5   9
ATOM      9  C   UNK d   1      -1.273  -0.527   0.612  0.00  0.00     0.241 C 
ATOM     10  O   UNK d   1      -2.115   0.247   1.014  0.00  0.00    -0.271 OA
ATOM     11  N   GLY d   2      -1.477  -1.856   0.711  0.00  0.00    -0.349 N 
ATOM     12  H   GLY d   2      -0.803  -2.475   0.389  0.00  0.00     0.163 HD
BRANCH  11  13
ATOM     13  CA  GLY d   2      -2.716  -2.364   1.304  0.00  0.00     0.235 C 
BRANCH  13  14
ATOM     14  C   GLY d   2      -2.696  -3.871   1.295  0.00  0.00     0.191 C 
ATOM     15  O   GLY d   2      -1.744  -4.460   0.841  0.00  0.00    -0.647 OA
ATOM     16  OXT GLY d   2      -3.736  -4.559   1.793  0.00  0.00    -0.647 OA
ENDBRANCH  13  14
ENDBRANCH  11  13
ENDBRANCH   5   9
ENDBRANCH   3   5
BRANCH   1  17
ATOM     17  C   UNK d   1       1.120   3.657   0.011  0.00  0.00     0.105 C 
BRANCH  17  18
ATOM     18  C   UNK d   1       2.555   4.187   0.000  0.00  0.00     0.053 C 
BRANCH  18  19
ATOM     19  C   UNK d   1       2.534   5.717   0.009  0.00  0.00     0.283 C 
BRANCH  19  20
ATOM     20  C   UNK d   1       3.944   6.238   0.122  0.00  0.00     0.204 C 
ATOM     21  O   UNK d   1       4.526   6.624  -0.864  0.00  0.00    -0.646 OA
ATOM     22  O   UNK d   1       4.552   6.273   1.318  0.00  0.00    -0.646 OA
ENDBRANCH  19  20
BRANCH  19  23
ATOM     23  N   UNK d   1       1.908   6.194  -1.237  0.00  0.00    -0.065 N 
ATOM     24  H   UNK d   1       1.846   7.211  -1.230  0.00  0.00     0.275 HD
ATOM     25  H   UNK d   1       2.456   5.893  -2.041  0.00  0.00     0.275 HD
ATOM     26  H   UNK d   1       0.962   5.801  -1.311  0.00  0.00     0.275 HD
ENDBRANCH  19  23
ENDBRANCH  18  19
ENDBRANCH  17  18
ENDBRANCH   1  17
TORSDOF 11
