REMARK  9 active torsions:
REMARK  status: ('A' for Active; 'I' for Inactive)
REMARK    1  A    between atoms: C_3  and  N_11 
REMARK    2  A    between atoms: N_6  and  S_7 
REMARK    3  A    between atoms: S_7  and  O_10 
REMARK       I    between atoms: N_11  and  C_12 
REMARK    4  A    between atoms: C_12  and  C_14 
REMARK    5  A    between atoms: C_14  and  C_23 
REMARK    6  A    between atoms: N_15  and  O_17 
REMARK    7  A    between atoms: O_17  and  C_18 
REMARK    8  A    between atoms: C_18  and  C_21 
REMARK    9  A    between atoms: C_26  and  N_29 
ROOT
ATOM      1  C   UNL d   1      -1.291   1.965   0.018  0.00  0.00     0.149 C 
ATOM      2  N   UNL d   1      -1.310   3.268   0.006  0.00  0.00    -0.258 N 
ATOM      3  HN  UNL d   1      -2.201   3.765   0.001  1.00  0.00     0.194 HD
ENDROOT
BRANCH   1   4
ATOM      4  C   UNL d   1      -0.003   1.241  -0.095  0.00  0.00     0.273 C 
ATOM      5  N   UNL d   1       0.008  -0.102  -0.205  0.00  0.00    -0.340 N 
ATOM      6  H   UNL d   1      -0.822  -0.600  -0.146  0.00  0.00     0.163 HD
ATOM      7  O   UNL d   1       1.044   1.859  -0.081  0.00  0.00    -0.266 OA
BRANCH   5   8
ATOM      8  C   UNL d   1       1.274  -0.809  -0.415  0.00  0.00     0.202 A 
ATOM      9  C   UNL d   1       1.236  -2.269   0.048  0.00  0.00     0.134 A 
ATOM     10  C   UNL d   1       2.419  -2.677   0.928  0.00  0.00     0.036 C 
ATOM     11  N   UNL d   1       1.420  -2.562  -1.378  0.00  0.00    -0.225 N 
ATOM     12  C   UNL d   1       1.459  -1.291  -1.834  0.00  0.00     0.260 A 
ATOM     13  O   UNL d   1       1.588  -0.763  -2.918  0.00  0.00    -0.270 OA
BRANCH  11  14
ATOM     14  S   UNL d   1       1.542  -4.006  -2.181  0.00  0.00     0.204 S 
ATOM     15  O   UNL d   1       0.897  -4.978  -1.369  0.00  0.00    -0.584 OA
ATOM     16  O   UNL d   1       1.153  -3.757  -3.525  0.00  0.00    -0.584 OA
BRANCH  14  17
ATOM     17  O   UNL d   1       3.017  -4.378  -2.217  0.00  0.00    -0.279 OA
ATOM     18  H   UNL d   1       3.201  -5.213  -2.668  0.00  0.00     0.234 HD
ENDBRANCH  14  17
ENDBRANCH  11  14
ENDBRANCH   5   8
ENDBRANCH   1   4
BRANCH   1  19
ATOM     19  C   UNL d   1      -2.556   1.208   0.142  0.00  0.00     0.075 A 
ATOM     20  N   UNL d   1      -2.537  -0.110   0.331  0.00  0.00    -0.335 N 
ATOM     21  C   UNL d   1      -3.656  -0.800   0.444  0.00  0.00     0.142 A 
ATOM     22  HN  UNL d   1      -1.642  -0.595   0.390  1.00  0.00     0.168 HD
ATOM     23  S   UNL d   1      -4.889   0.483   0.275  0.00  0.00    -0.064 SA
ATOM     24  C   UNL d   1      -3.761   1.855   0.069  0.00  0.00     0.085 A 
BRANCH  21  25
ATOM     25  N   UNL d   1      -3.830  -2.159   0.641  0.00  0.00    -0.380 N 
ATOM     26  H   UNL d   1      -3.058  -2.742   0.715  0.00  0.00     0.158 HD
ATOM     27  H   UNL d   1      -4.725  -2.530   0.706  0.00  0.00     0.158 HD
ENDBRANCH  21  25
ENDBRANCH   1  19
BRANCH   2  28
ATOM     28  O   UNL d   1      -0.094   3.993   0.002  0.00  0.00    -0.258 OA
BRANCH  28  29
ATOM     29  C   UNL d   1      -0.264   5.412  -0.010  0.00  0.00     0.169 C 
ATOM     30  C   UNL d   1      -1.038   5.822  -1.264  0.00  0.00     0.060 C 
ATOM     31  C   UNL d   1      -1.042   5.843   1.235  0.00  0.00     0.060 C 
BRANCH  29  32
ATOM     32  C   UNL d   1       1.087   6.079  -0.013  0.00  0.00     0.211 C 
ATOM     33  O   UNL d   1       2.092   5.409  -0.006  0.00  0.00    -0.646 OA
ATOM     34  O   UNL d   1       1.174   7.419  -0.024  0.00  0.00    -0.646 OA
ENDBRANCH  29  32
ENDBRANCH  28  29
ENDBRANCH   2  28
TORSDOF 9
