REMARK  6 active torsions:
REMARK  status: ('A' for Active; 'I' for Inactive)
REMARK    1  A    between atoms: C_11  and  O_12 
REMARK    2  A    between atoms: O_12  and  C_13 
REMARK    3  A    between atoms: C_13  and  C_15 
REMARK    4  A    between atoms: C_15  and  C_16 
REMARK    5  A    between atoms: C_16  and  C_17 
REMARK    6  A    between atoms: C_30  and  C_34 
ROOT
ATOM      1  C   UNL d   1      -0.544   3.167   2.408  0.00  0.00     0.018 C 
ATOM      2  C   UNL d   1       0.346   3.478   1.175  0.00  0.00    -0.017 C 
ATOM      3  C   UNL d   1      -0.482   4.259   0.185  0.00  0.00     0.005 C 
ATOM      4  C   UNL d   1      -0.982   5.618   0.649  0.00  0.00     0.007 C 
ATOM      5  C   UNL d   1      -2.308   5.871  -0.080  0.00  0.00     0.011 C 
ATOM      6  C   UNL d   1      -2.263   5.404  -1.529  0.00  0.00    -0.021 C 
ATOM      7  C   UNL d   1      -0.859   5.239  -2.074  0.00  0.00     0.077 C 
ATOM      8  C   UNL d   1       0.078   4.392  -1.222  0.00  0.00    -0.028 C 
ATOM      9  C   UNL d   1       0.387   3.014  -1.781  0.00  0.00     0.013 C 
ATOM     10  C   UNL d   1       1.312   2.252  -0.827  0.00  0.00     0.034 C 
ATOM     11  C   UNL d   1       0.720   2.120   0.565  0.00  0.00     0.140 C 
ATOM     12  C   UNL d   1       1.401   5.182  -1.208  0.00  0.00     0.016 C 
ATOM     13  C   UNL d   1      -0.959   4.742  -3.497  0.00  0.00     0.155 C 
ATOM     14  O   UNL d   1      -0.309   3.828  -3.956  0.00  0.00    -0.293 OA
ATOM     15  C   UNL d   1      -1.909   5.446  -4.372  0.00  0.00     0.054 C 
ATOM     16  C   UNL d   1      -2.852   6.235  -3.858  0.00  0.00    -0.062 C 
ATOM     17  C   UNL d   1      -3.090   6.369  -2.388  0.00  0.00    -0.012 C 
ATOM     18  C   UNL d   1      -3.004   7.814  -1.950  0.00  0.00     0.015 C 
ATOM     19  C   UNL d   1      -2.999   8.797  -3.129  0.00  0.00     0.011 C 
ATOM     20  C   UNL d   1      -4.026   8.418  -4.175  0.00  0.00    -0.036 C 
ATOM     21  C   UNL d   1      -3.622   7.090  -4.817  0.00  0.00     0.025 C 
ATOM     22  C   UNL d   1      -4.790   6.489  -5.555  0.00  0.00     0.030 C 
ATOM     23  C   UNL d   1      -5.211   7.447  -6.676  0.00  0.00     0.045 C 
ATOM     24  C   UNL d   1      -5.233   8.914  -6.288  0.00  0.00     0.021 C 
ATOM     25  C   UNL d   1      -4.109   9.387  -5.365  0.00  0.00     0.011 C 
ATOM     26  C   UNL d   1      -4.277   7.252  -7.878  0.00  0.00     0.027 C 
ATOM     27  C   UNL d   1      -5.416   8.398  -3.545  0.00  0.00     0.016 C 
ATOM     28  C   UNL d   1      -4.523   5.875  -2.119  0.00  0.00     0.021 C 
ATOM     29  C   UNL d   1      -3.016   4.064  -1.640  0.00  0.00     0.017 C 
ATOM     30  C   UNL d   1       1.581   4.208   1.687  0.00  0.00     0.018 C 
ENDROOT
BRANCH  11  31
ATOM     31  O   UNL d   1      -0.471   1.284   0.506  0.00  0.00    -0.315 OA
BRANCH  31  32
ATOM     32  C   UNL d   1      -0.291  -0.042   0.608  0.00  0.00     0.259 C 
ATOM     33  O   UNL d   1       0.822  -0.492   0.741  0.00  0.00    -0.265 OA
BRANCH  32  34
ATOM     34  C   UNL d   1      -1.477  -0.970   0.555  0.00  0.00     0.121 C 
BRANCH  34  35
ATOM     35  C   UNL d   1      -0.999  -2.417   0.692  0.00  0.00     0.123 C 
BRANCH  35  36
ATOM     36  C   UNL d   1      -2.186  -3.345   0.639  0.00  0.00     0.172 C 
ATOM     37  O   UNL d   1      -3.299  -2.895   0.506  0.00  0.00    -0.648 OA
ATOM     38  O   UNL d   1      -2.005  -4.671   0.740  0.00  0.00    -0.648 OA
ENDBRANCH  35  36
ENDBRANCH  34  35
ENDBRANCH  32  34
ENDBRANCH  31  32
ENDBRANCH  11  31
BRANCH  23  39
ATOM     39  C   UNL d   1      -6.609   7.053  -7.118  0.00  0.00     0.181 C 
ATOM     40  O   UNL d   1      -7.204   6.180  -6.533  0.00  0.00    -0.647 OA
ATOM     41  O   UNL d   1      -7.183   7.674  -8.160  0.00  0.00    -0.647 OA
ENDBRANCH  23  39
TORSDOF 6
