REMARK  10 active torsions:
REMARK  status: ('A' for Active; 'I' for Inactive)
REMARK    1  A    between atoms: C_4  and  C_7 
REMARK    2  A    between atoms: C_7  and  C_8 
REMARK    3  A    between atoms: C_7  and  O_36 
REMARK       I    between atoms: C_8  and  N_10 
REMARK    4  A    between atoms: N_10  and  CA_11 
REMARK    5  A    between atoms: CA_16  and  C_34 
REMARK    6  A    between atoms: C_17  and  C_20 
REMARK    7  A    between atoms: C_20  and  S_21 
REMARK    8  A    between atoms: S_21  and  C_22 
REMARK    9  A    between atoms: N_29  and  C_30 
REMARK   10  A    between atoms: C_30  and  S_31 
ROOT
ATOM      1  CA  UNL d   1      -2.233  -0.223   3.580  0.00  0.00     0.210 C 
ATOM      2  C   UNL d   1      -3.094   0.716   4.418  0.00  0.00     0.187 C 
ATOM      3  N   UNL d   1      -1.999   0.622   5.436  0.00  0.00    -0.293 N 
ATOM      4  C   UNL d   1      -1.140  -0.009   4.613  0.00  0.00     0.251 C 
ATOM      5  O   UNL d   1       0.038  -0.293   4.672  0.00  0.00    -0.271 OA
ATOM      6  CA  UNL d   1      -2.091   0.964   6.795  0.00  0.00     0.119 C 
ATOM      7  C   UNL d   1      -3.274   1.038   7.386  0.00  0.00    -0.027 C 
ATOM      8  C   UNL d   1      -4.627   0.849   6.782  0.00  0.00     0.113 C 
ATOM      9  S   UNL d   1      -4.551  -0.053   5.204  0.00  0.00    -0.136 SA
ENDROOT
BRANCH   7  10
ATOM     10  C   UNL d   1      -3.252   1.355   8.859  0.00  0.00     0.120 C 
BRANCH  10  11
ATOM     11  S   UNL d   1      -3.669   3.098   9.108  0.00  0.00    -0.086 SA
BRANCH  11  12
ATOM     12  C   UNL d   1      -3.571   3.188  10.865  0.00  0.00     0.179 A 
ATOM     13  N   UNL d   1      -3.792   4.285  11.628  0.00  0.00    -0.237 N 
ATOM     14  N   UNL d   1      -3.595   3.859  12.953  0.00  0.00    -0.223 N 
ATOM     15  N   UNL d   1      -3.287   2.608  12.901  0.00  0.00    -0.226 N 
ATOM     16  HN  UNL d   1      -3.680   4.430  13.794  1.00  0.00     0.210 HD
ATOM     17  N   UNL d   1      -3.275   2.202  11.683  0.00  0.00    -0.263 N 
ATOM     18  HN  UNL d   1      -3.082   2.025  13.712  1.00  0.00     0.210 HD
ATOM     19  HN  UNL d   1      -3.066   1.247  11.391  1.00  0.00     0.190 HD
BRANCH  13  20
ATOM     20  C   UNL d   1      -4.158   5.628  11.170  0.00  0.00     0.317 C 
BRANCH  20  21
ATOM     21  S   UNL d   1      -5.965   5.770  11.094  0.00  0.00     0.121 S 
ATOM     22  O   UNL d   1      -6.478   4.937  10.063  0.00  0.00    -0.594 OA
ATOM     23  O   UNL d   1      -6.515   5.725  12.403  0.00  0.00    -0.594 OA
ATOM     24  O   UNL d   1      -6.225   7.190  10.612  0.00  0.00    -0.594 OA
ENDBRANCH  20  21
ENDBRANCH  13  20
ENDBRANCH  11  12
ENDBRANCH  10  11
ENDBRANCH   7  10
BRANCH   6  25
ATOM     25  C   UNL d   1      -0.866   1.241   7.567  0.00  0.00     0.227 C 
ATOM     26  O   UNL d   1      -0.398   2.362   7.582  0.00  0.00    -0.643 OA
ATOM     27  OXT UNL d   1      -0.265   0.250   8.255  0.00  0.00    -0.643 OA
ENDBRANCH   6  25
BRANCH   1  28
ATOM     28  N   UNL d   1      -1.902   0.309   2.255  0.00  0.00    -0.343 N 
ATOM     29  C   UNL d   1      -1.577  -0.532   1.254  0.00  0.00     0.251 C 
ATOM     30  O   UNL d   1      -1.558  -1.729   1.449  0.00  0.00    -0.270 OA
ATOM     31  H   UNL d   1      -1.917   1.266   2.099  0.00  0.00     0.163 HD
BRANCH  29  32
ATOM     32  C   UNL d   1      -1.236   0.015  -0.109  0.00  0.00     0.243 C 
BRANCH  32  33
ATOM     33  C   UNL d   1       0.028   0.831  -0.021  0.00  0.00    -0.021 A 
ATOM     34  C   UNL d   1      -0.044   2.201   0.147  0.00  0.00     0.010 A 
ATOM     35  C   UNL d   1       1.115   2.949   0.228  0.00  0.00     0.001 A 
ATOM     36  C   UNL d   1       2.347   2.327   0.138  0.00  0.00     0.000 A 
ATOM     37  C   UNL d   1       2.419   0.957  -0.029  0.00  0.00     0.001 A 
ATOM     38  C   UNL d   1       1.259   0.209  -0.109  0.00  0.00     0.010 A 
ENDBRANCH  32  33
BRANCH  32  39
ATOM     39  O   UNL d   1      -1.043  -1.067  -1.022  0.00  0.00    -0.381 OA
ATOM     40  H   UNL d   1      -0.330  -1.671  -0.770  0.00  0.00     0.211 HD
ENDBRANCH  32  39
ENDBRANCH  29  32
ENDBRANCH   1  28
TORSDOF 10
