REMARK  5 active torsions:
REMARK  status: ('A' for Active; 'I' for Inactive)
REMARK    1  A    between atoms: C_4  and  N_7 
REMARK    2  A    between atoms: N_7  and  N_9 
REMARK    3  A    between atoms: N_9  and  C_11 
REMARK    4  A    between atoms: C_14  and  N_17 
REMARK    5  A    between atoms: C_15  and  N_16 
ROOT
ATOM      1  C   UNL d   1      -3.609   2.962   0.035  0.00  0.00     0.091 A 
ATOM      2  C   UNL d   1      -2.420   3.707   0.034  0.00  0.00     0.038 A 
ATOM      3  C   UNL d   1      -1.226   3.036   0.030  0.00  0.00     0.050 A 
ATOM      4  C   UNL d   1      -1.221   1.642   0.017  0.00  0.00     0.100 A 
ATOM      5  C   UNL d   1      -3.531   1.557   0.027  0.00  0.00     0.129 A 
ATOM      6  N   UNL d   1      -2.350   0.875   0.018  0.00  0.00    -0.328 N 
ATOM      7  H   UNL d   1      -2.312  -0.151   0.012  0.00  0.00     0.169 HD
ENDROOT
BRANCH   1   8
ATOM      8  N   UNL d   1      -4.817   3.588   0.045  0.00  0.00    -0.297 N 
ATOM      9  HN  UNL d   1      -5.676   3.038   0.046  1.00  0.00     0.187 HD
BRANCH   8  10
ATOM     10  N   UNL d   1      -4.876   4.876   0.052  0.00  0.00    -0.300 N 
ATOM     11  HN  UNL d   1      -4.017   5.426   0.051  1.00  0.00     0.187 HD
BRANCH  10  12
ATOM     12  C   UNL d   1      -6.091   5.505   0.062  0.00  0.00     0.048 A 
ATOM     13  C   UNL d   1      -6.159   6.901   0.070  0.00  0.00     0.031 A 
ATOM     14  C   UNL d   1      -7.387   7.528   0.079  0.00  0.00     0.002 A 
ATOM     15  C   UNL d   1      -8.550   6.779   0.080  0.00  0.00     0.000 A 
ATOM     16  C   UNL d   1      -8.491   5.396   0.072  0.00  0.00     0.002 A 
ATOM     17  C   UNL d   1      -7.270   4.755   0.058  0.00  0.00     0.031 A 
ENDBRANCH  10  12
ENDBRANCH   8  10
ENDBRANCH   1   8
BRANCH   5  18
ATOM     18  N   UNL d   1      -4.691   0.803   0.028  0.00  0.00    -0.384 N 
ATOM     19  H   UNL d   1      -4.640  -0.166   0.022  0.00  0.00     0.157 HD
ATOM     20  H   UNL d   1      -5.556   1.243   0.035  0.00  0.00     0.157 HD
ENDBRANCH   5  18
BRANCH   4  21
ATOM     21  N   UNL d   1      -0.011   0.966   0.007  0.00  0.00    -0.385 N 
ATOM     22  H   UNL d   1       0.002  -0.004   0.002  0.00  0.00     0.157 HD
ATOM     23  H   UNL d   1       0.822   1.462   0.002  0.00  0.00     0.157 HD
ENDBRANCH   4  21
TORSDOF 5
