REMARK  2 active torsions:
REMARK  status: ('A' for Active; 'I' for Inactive)
REMARK    1  A    between atoms: C_2  and  O_4 
REMARK    2  A    between atoms: O_4  and  C_5 
ROOT
ATOM      1  C   UNL d   1       1.264   2.013   0.001  0.00  0.00     0.140 C 
ATOM      2  C   UNL d   1       2.055   1.693   1.294  0.00  0.00     0.053 C 
ATOM      3  C   UNL d   1       1.927   2.941   2.209  0.00  0.00     0.010 C 
ATOM      4  C   UNL d   1       0.791   3.745   1.559  0.00  0.00     0.002 C 
ATOM      5  C   UNL d   1       1.069   3.541   0.056  0.00  0.00     0.003 C 
ATOM      6  C   UNL d   1      -0.058   4.069  -0.799  0.00  0.00     0.014 C 
ATOM      7  C   UNL d   1      -0.833   5.160  -0.037  0.00  0.00     0.006 C 
ATOM      8  C   UNL d   1       0.160   6.003   0.748  0.00  0.00    -0.002 C 
ATOM      9  C   UNL d   1       0.676   5.184   1.943  0.00  0.00    -0.005 C 
ATOM     10  C   UNL d   1       1.923   5.863   2.486  0.00  0.00     0.010 C 
ATOM     11  C   UNL d   1       1.486   7.213   3.077  0.00  0.00     0.035 C 
ATOM     12  C   UNL d   1       0.669   7.994   2.065  0.00  0.00    -0.072 C 
ATOM     13  C   UNL d   1       0.988   9.273   1.878  0.00  0.00     0.053 C 
ATOM     14  C   UNL d   1       0.224  10.118   0.958  0.00  0.00     0.149 C 
ATOM     15  O   UNL d   1       0.654  11.191   0.581  0.00  0.00    -0.293 OA
ATOM     16  C   UNL d   1      -1.119   9.600   0.492  0.00  0.00     0.084 C 
ATOM     17  C   UNL d   1      -0.973   8.123   0.142  0.00  0.00     0.017 C 
ATOM     18  C   UNL d   1      -0.432   7.304   1.301  0.00  0.00     0.019 C 
ATOM     19  C   UNL d   1       2.396   4.180  -0.366  0.00  0.00     0.020 C 
ATOM     20  C   UNL d   1       2.046   1.646  -1.187  0.00  0.00    -0.077 C 
ATOM     21  C   UNL d   1       2.671   1.353  -2.136  0.00  0.00     0.015 C 
ENDROOT
BRANCH   1  22
ATOM     22  O   UNL d   1      -0.016   1.338   0.009  0.00  0.00    -0.296 OA
BRANCH  22  23
ATOM     23  C   UNL d   1       0.002  -0.004   0.002  0.00  0.00     0.256 C 
ATOM     24  C   UNL d   1      -1.293  -0.775   0.010  0.00  0.00     0.126 C 
ATOM     25  O   UNL d   1       1.056  -0.594  -0.011  0.00  0.00    -0.266 OA
ENDBRANCH  22  23
ENDBRANCH   1  22
TORSDOF 2
