REMARK  5 active torsions:
REMARK  status: ('A' for Active; 'I' for Inactive)
REMARK    1  A    between atoms: C_4  and  C_7 
REMARK    2  A    between atoms: C_7  and  C_14 
REMARK    3  A    between atoms: C_8  and  C_9 
REMARK    4  A    between atoms: C_9  and  N_22 
REMARK    5  A    between atoms: C_14  and  C_15 
ROOT
ATOM      1  C   UNL d   1      -1.119   1.806  -0.099  0.00  0.00    -0.046 C 
ATOM      2  C   UNL d   1      -0.023   1.061  -0.128  0.00  0.00     0.009 C 
ENDROOT
BRANCH   1   3
ATOM      3  C   UNL d   1      -2.430   1.183   0.180  0.00  0.00    -0.030 A 
ATOM      4  C   UNL d   1      -2.680   0.604   1.425  0.00  0.00     0.012 A 
ATOM      5  C   UNL d   1      -3.906   0.024   1.679  0.00  0.00     0.001 A 
ATOM      6  C   UNL d   1      -4.885   0.014   0.702  0.00  0.00     0.000 A 
ATOM      7  C   UNL d   1      -4.643   0.585  -0.535  0.00  0.00     0.001 A 
ATOM      8  C   UNL d   1      -3.424   1.175  -0.799  0.00  0.00     0.012 A 
ENDBRANCH   1   3
BRANCH   1   9
ATOM      9  C   UNL d   1      -1.028   3.289  -0.350  0.00  0.00     0.077 C 
BRANCH   9  10
ATOM     10  C   UNL d   1      -1.264   3.566  -1.813  0.00  0.00    -0.054 A 
ATOM     11  C   UNL d   1      -2.546   3.800  -2.274  0.00  0.00     0.009 A 
ATOM     12  C   UNL d   1      -2.763   4.054  -3.615  0.00  0.00     0.024 A 
ATOM     13  C   UNL d   1      -1.696   4.074  -4.496  0.00  0.00     0.034 A 
ATOM     14  C   UNL d   1      -0.414   3.840  -4.034  0.00  0.00     0.024 A 
ATOM     15 CL   UNL d   1      -1.968   4.393  -6.181  0.00  0.00    -0.084 Cl
ATOM     16  C   UNL d   1      -0.197   3.591  -2.692  0.00  0.00     0.009 A 
ENDBRANCH   9  10
ENDBRANCH   1   9
BRANCH   2  17
ATOM     17  C   UNL d   1       1.290   1.667  -0.550  0.00  0.00     0.262 C 
BRANCH  17  18
ATOM     18  N   UNL d   1       2.320   1.424   0.505  0.00  0.00    -0.068 N 
ATOM     19  C   UNL d   1       2.369  -0.004   0.853  0.00  0.00     0.235 C 
ATOM     20  C   UNL d   1       3.762  -0.134   1.518  0.00  0.00     0.029 C 
ATOM     21  C   UNL d   1       4.638   0.821   0.675  0.00  0.00     0.029 C 
ATOM     22  C   UNL d   1       3.648   1.802   0.020  0.00  0.00     0.235 C 
ATOM     23  H   UNL d   1       2.085   1.976   1.338  0.00  0.00     0.280 HD
ENDBRANCH  17  18
ENDBRANCH   2  17
TORSDOF 5
