REMARK  3 active torsions:
REMARK  status: ('A' for Active; 'I' for Inactive)
REMARK    1  A    between atoms: C_5  and  C_10 
REMARK    2  A    between atoms: C_10  and  O_12 
REMARK    3  A    between atoms: O_12  and  C_13 
ROOT
ATOM      1  C   UNL d   1      -0.263   2.671   3.745  0.00  0.00     0.140 C 
ATOM      2  C   UNL d   1      -0.909   3.936   3.151  0.00  0.00     0.034 C 
ATOM      3  C   UNL d   1      -1.082   3.675   1.637  0.00  0.00     0.008 C 
ATOM      4  C   UNL d   1      -1.097   2.139   1.539  0.00  0.00     0.001 C 
ATOM      5  C   UNL d   1      -0.023   1.704   2.553  0.00  0.00    -0.013 C 
ATOM      6  C   UNL d   1       1.383   2.003   2.027  0.00  0.00     0.012 C 
ATOM      7  C   UNL d   1       1.589   1.407   0.637  0.00  0.00     0.006 C 
ATOM      8  C   UNL d   1       0.578   2.050  -0.316  0.00  0.00    -0.002 C 
ATOM      9  C   UNL d   1      -0.825   1.644   0.134  0.00  0.00    -0.005 C 
ATOM     10  C   UNL d   1      -0.951   0.117   0.094  0.00  0.00     0.010 C 
ATOM     11  C   UNL d   1      -0.809  -0.364  -1.351  0.00  0.00     0.035 C 
ATOM     12  C   UNL d   1       0.508   0.144  -1.907  0.00  0.00    -0.072 C 
ATOM     13  C   UNL d   1       1.303  -0.732  -2.520  0.00  0.00     0.053 C 
ATOM     14  C   UNL d   1       2.581  -0.291  -3.090  0.00  0.00     0.149 C 
ATOM     15  O   UNL d   1       3.486  -1.069  -3.309  0.00  0.00    -0.293 OA
ATOM     16  C   UNL d   1       2.712   1.190  -3.389  0.00  0.00     0.084 C 
ATOM     17  C   UNL d   1       2.264   1.950  -2.142  0.00  0.00     0.017 C 
ATOM     18  C   UNL d   1       0.840   1.596  -1.750  0.00  0.00     0.019 C 
ATOM     19  C   UNL d   1      -0.169   0.240   2.970  0.00  0.00     0.018 C 
ENDROOT
BRANCH   1  20
ATOM     20  O   UNL d   1       1.000   3.004   4.378  0.00  0.00    -0.314 OA
BRANCH  20  21
ATOM     21  C   UNL d   1       0.970   3.276   5.692  0.00  0.00     0.271 C 
ATOM     22  O   UNL d   1      -0.077   3.235   6.294  0.00  0.00    -0.264 OA
BRANCH  21  23
ATOM     23  C   UNL d   1       2.242   3.630   6.418  0.00  0.00     0.065 C 
ATOM     24  C   UNL d   1       1.965   3.898   7.903  0.00  0.00     0.025 C 
ATOM     25  C   UNL d   1       3.260   4.325   8.597  0.00  0.00     0.014 C 
ATOM     26  C   UNL d   1       4.406   4.345   7.578  0.00  0.00    -0.026 C 
ATOM     27  C   UNL d   1       5.705   4.822   8.231  0.00  0.00     0.019 C 
ATOM     28  C   UNL d   1       4.571   2.928   7.011  0.00  0.00     0.014 C 
ATOM     29  C   UNL d   1       3.995   5.256   6.431  0.00  0.00    -0.020 C 
ATOM     30  C   UNL d   1       3.263   2.488   6.316  0.00  0.00     0.025 C 
ATOM     31  C   UNL d   1       2.869   4.885   5.827  0.00  0.00    -0.010 C 
ENDBRANCH  21  23
ENDBRANCH  20  21
ENDBRANCH   1  20
TORSDOF 3
