REMARK  9 active torsions:
REMARK  status: ('A' for Active; 'I' for Inactive)
REMARK    1  A    between atoms: C_3  and  S_10 
REMARK    2  A    between atoms: S_10  and  C_11 
REMARK    3  A    between atoms: C_11  and  C_12 
REMARK    4  A    between atoms: C_13  and  C_31 
REMARK    5  A    between atoms: C_16  and  N_19 
REMARK    6  A    between atoms: C_16  and  O_27 
REMARK       I    between atoms: N_19  and  C_20 
REMARK    7  A    between atoms: C_20  and  C_22 
REMARK    8  A    between atoms: C_22  and  S_23 
REMARK    9  A    between atoms: S_23  and  C_24 
ROOT
ATOM      1  C   UNL d   1      -0.376  -1.501   6.086  0.00  0.00     0.197 C 
ATOM      2  C   UNL d   1      -0.721  -0.484   7.093  0.00  0.00     0.069 C 
ATOM      3  N   UNL d   1      -0.988   0.300   7.870  0.00  0.00    -0.197 NA
ENDROOT
BRANCH   1   4
ATOM      4  S   UNL d   1      -0.371  -0.743   4.438  0.00  0.00    -0.146 SA
BRANCH   4   5
ATOM      5  C   UNL d   1       0.066  -2.109   3.327  0.00  0.00     0.177 C 
BRANCH   5   6
ATOM      6  C   UNL d   1       0.105  -1.609   1.906  0.00  0.00     0.229 C 
ATOM      7  N   UNL d   1       0.411  -2.454   0.902  0.00  0.00    -0.318 N 
ATOM      8  H   UNL d   1       0.606  -3.385   1.094  0.00  0.00     0.166 HD
ATOM      9  O   UNL d   1      -0.138  -0.445   1.666  0.00  0.00    -0.273 OA
BRANCH   7  10
ATOM     10  C   UNL d   1       0.449  -1.968  -0.479  0.00  0.00     0.250 C 
ATOM     11  C   UNL d   1       1.350  -0.769  -0.686  0.00  0.00     0.221 C 
ATOM     12  N   UNL d   1       0.113   0.051  -0.615  0.00  0.00    -0.288 N 
ATOM     13  S   UNL d   1       2.362  -0.290   0.755  0.00  0.00    -0.133 SA
ATOM     14  C   UNL d   1       0.023   1.423  -0.323  0.00  0.00     0.119 C 
ATOM     15  C   UNL d   1      -0.657  -1.007  -0.822  0.00  0.00     0.285 C 
ATOM     16  C   UNL d   1       1.037   2.063   0.238  0.00  0.00    -0.027 C 
ATOM     17  C   UNL d   1       2.383   1.522   0.598  0.00  0.00     0.113 C 
ATOM     18  O   UNL d   1      -1.813  -1.148  -1.159  0.00  0.00    -0.267 OA
BRANCH  14  19
ATOM     19  C   UNL d   1      -1.212   2.158  -0.650  0.00  0.00     0.227 C 
ATOM     20  O   UNL d   1      -2.193   1.556  -1.038  0.00  0.00    -0.643 OA
ATOM     21  O   UNL d   1      -1.252   3.499  -0.521  0.00  0.00    -0.643 OA
ENDBRANCH  14  19
BRANCH  16  22
ATOM     22  C   UNL d   1       0.805   3.518   0.552  0.00  0.00     0.120 C 
BRANCH  22  23
ATOM     23  S   UNL d   1       1.138   4.514  -0.922  0.00  0.00    -0.087 SA
BRANCH  23  24
ATOM     24  C   UNL d   1       0.798   6.123  -0.287  0.00  0.00     0.178 A 
ATOM     25  N   UNL d   1       0.884   7.290  -0.968  0.00  0.00    -0.259 N 
ATOM     26  C   UNL d   1       1.274   7.478  -2.367  0.00  0.00     0.181 C 
ATOM     27  N   UNL d   1       0.519   8.284  -0.043  0.00  0.00    -0.224 N 
ATOM     28  N   UNL d   1       0.254   7.683   1.066  0.00  0.00    -0.226 N 
ATOM     29  HN  UNL d   1       0.472   9.288  -0.216  1.00  0.00     0.210 HD
ATOM     30  N   UNL d   1       0.408   6.415   0.934  0.00  0.00    -0.263 N 
ATOM     31  HN  UNL d   1      -0.037   8.148   1.926  1.00  0.00     0.210 HD
ATOM     32  HN  UNL d   1       0.251   5.730   1.674  1.00  0.00     0.190 HD
ENDBRANCH  23  24
ENDBRANCH  22  23
ENDBRANCH  16  22
BRANCH  10  33
ATOM     33  O   UNL d   1       0.632  -3.011  -1.438  0.00  0.00    -0.355 OA
ATOM     34  C   UNL d   1      -0.308  -4.081  -1.319  0.00  0.00     0.205 C 
ENDBRANCH  10  33
ENDBRANCH   7  10
ENDBRANCH   5   6
ENDBRANCH   4   5
ENDBRANCH   1   4
TORSDOF 9
