REMARK  8 active torsions:
REMARK  status: ('A' for Active; 'I' for Inactive)
REMARK    1  A    between atoms: C_8  and  O_42 
REMARK    2  A    between atoms: C_9  and  O_41 
REMARK    3  A    between atoms: C_10  and  O_12 
REMARK    4  A    between atoms: O_12  and  C_13 
REMARK    5  A    between atoms: C_20  and  C_27 
REMARK    6  A    between atoms: C_29  and  O_36 
REMARK    7  A    between atoms: C_30  and  O_35 
REMARK    8  A    between atoms: C_31  and  O_33 
ROOT
ATOM      1  C   UNL d   1       7.305   4.195   1.857  0.00  0.00     0.165 C 
ATOM      2  C   UNL d   1       6.069   5.037   1.592  0.00  0.00    -0.019 A 
ATOM      3  C   UNL d   1       5.995   6.250   2.280  0.00  0.00     0.050 A 
ATOM      4  C   UNL d   1       4.889   7.054   2.061  0.00  0.00     0.105 A 
ATOM      5  C   UNL d   1       3.876   6.659   1.173  0.00  0.00     0.105 A 
ATOM      6  C   UNL d   1       3.955   5.454   0.498  0.00  0.00     0.048 A 
ATOM      7  C   UNL d   1       5.072   4.646   0.726  0.00  0.00    -0.037 A 
ATOM      8  C   UNL d   1       5.109   3.329  -0.029  0.00  0.00     0.066 C 
ATOM      9  C   UNL d   1       6.099   2.420   0.669  0.00  0.00     0.107 C 
ATOM     10  C   UNL d   1       7.449   3.204   0.718  0.00  0.00     0.058 C 
ATOM     11  C   UNL d   1       8.389   2.020   0.993  0.00  0.00     0.187 C 
ATOM     12  O   UNL d   1       7.812   0.943   0.177  0.00  0.00    -0.321 OA
ATOM     13  C   UNL d   1       6.499   1.171  -0.059  0.00  0.00     0.264 C 
ATOM     14  O   UNL d   1       5.773   0.486  -0.740  0.00  0.00    -0.265 OA
ATOM     15  O   UNL d   1       2.925   7.619   1.143  0.00  0.00    -0.323 OA
ATOM     16  C   UNL d   1       3.158   8.431   2.313  0.00  0.00     0.352 C 
ATOM     17  O   UNL d   1       4.565   8.259   2.583  0.00  0.00    -0.323 OA
ENDROOT
BRANCH   1  18
ATOM     18  O   UNL d   1       7.155   3.493   3.093  0.00  0.00    -0.348 OA
BRANCH  18  19
ATOM     19  C   UNL d   1       7.671   4.194   4.226  0.00  0.00     0.292 C 
ATOM     20  C   UNL d   1       7.341   3.412   5.499  0.00  0.00     0.204 C 
ATOM     21  C   UNL d   1       7.966   4.112   6.712  0.00  0.00     0.183 C 
ATOM     22  C   UNL d   1       9.470   4.244   6.470  0.00  0.00     0.187 C 
ATOM     23  C   UNL d   1       9.691   5.038   5.177  0.00  0.00     0.180 C 
ATOM     24  O   UNL d   1      10.106   4.937   7.544  0.00  0.00    -0.351 OA
ATOM     25  C   UNL d   1      11.196   5.203   4.962  0.00  0.00     0.205 C 
ATOM     26  O   UNL d   1       9.089   4.334   4.093  0.00  0.00    -0.348 OA
ATOM     27  O   UNL d   1      11.753   5.821   6.129  0.00  0.00    -0.359 OA
ATOM     28  C   UNL d   1      11.514   5.110   7.344  0.00  0.00     0.256 C 
ATOM     29  C   UNL d   1      12.188   3.739   7.268  0.00  0.00     0.070 C 
BRANCH  20  30
ATOM     30  O   UNL d   1       7.864   2.086   5.392  0.00  0.00    -0.388 OA
ATOM     31  H   UNL d   1       7.508   1.582   4.647  0.00  0.00     0.210 HD
ENDBRANCH  20  30
BRANCH  21  32
ATOM     32  O   UNL d   1       7.735   3.334   7.888  0.00  0.00    -0.390 OA
ATOM     33  H   UNL d   1       6.799   3.211   8.100  0.00  0.00     0.210 HD
ENDBRANCH  21  32
ENDBRANCH  18  19
ENDBRANCH   1  18
BRANCH   8  34
ATOM     34  C   UNL d   1       3.741   2.696  -0.019  0.00  0.00    -0.043 A 
ATOM     35  C   UNL d   1       3.127   2.401   1.183  0.00  0.00     0.047 A 
ATOM     36  C   UNL d   1       1.866   1.824   1.197  0.00  0.00     0.104 A 
ATOM     37  C   UNL d   1       1.225   1.533  -0.001  0.00  0.00     0.132 A 
ATOM     38  C   UNL d   1       1.846   1.832  -1.208  0.00  0.00     0.104 A 
ATOM     39  C   UNL d   1       3.104   2.413  -1.213  0.00  0.00     0.047 A 
BRANCH  36  40
ATOM     40  O   UNL d   1       1.260   1.539   2.380  0.00  0.00    -0.353 OA
ATOM     41  C   UNL d   1       1.979   1.865   3.572  0.00  0.00     0.210 C 
ENDBRANCH  36  40
BRANCH  37  42
ATOM     42  O   UNL d   1      -0.011   0.963   0.007  0.00  0.00    -0.356 OA
ATOM     43  H   UNL d   1       0.002  -0.004   0.002  0.00  0.00     0.218 HD
ENDBRANCH  37  42
BRANCH  38  44
ATOM     44  O   UNL d   1       1.220   1.553  -2.383  0.00  0.00    -0.353 OA
ATOM     45  C   UNL d   1       1.918   1.887  -3.585  0.00  0.00     0.210 C 
ENDBRANCH  38  44
ENDBRANCH   8  34
TORSDOF 8
