REMARK  5 active torsions:
REMARK  status: ('A' for Active; 'I' for Inactive)
REMARK    1  A    between atoms: CA_3  and  C_21 
REMARK    2  A    between atoms: CA_6  and  N_9 
REMARK       I    between atoms: N_9  and  C_10 
REMARK    3  A    between atoms: C_10  and  CA_12 
REMARK    4  A    between atoms: CA_12  and  C_13 
REMARK    5  A    between atoms: CA_12  and  N_26 
ROOT
ATOM      1  N   UNL d   1       2.607   0.108   2.270  0.00  0.00    -0.343 N 
ATOM      2  C   UNL d   1       3.062   1.011   1.378  0.00  0.00     0.253 C 
ATOM      3  O   UNL d   1       3.932   1.793   1.698  0.00  0.00    -0.271 OA
ATOM      4  H   UNL d   1       1.911  -0.517   2.014  0.00  0.00     0.163 HD
ENDROOT
BRANCH   1   5
ATOM      5  CA  UNL d   1       3.163   0.072   3.625  0.00  0.00     0.210 C 
ATOM      6  C   UNL d   1       3.011  -1.281   4.300  0.00  0.00     0.187 C 
ATOM      7  N   UNL d   1       2.344  -0.472   5.364  0.00  0.00    -0.293 N 
ATOM      8  S   UNL d   1       4.525  -1.951   5.067  0.00  0.00    -0.136 SA
ATOM      9  CA  UNL d   1       2.118  -0.877   6.696  0.00  0.00     0.118 C 
ATOM     10  C   UNL d   1       2.241   0.669   4.665  0.00  0.00     0.251 C 
ATOM     11  C   UNL d   1       2.817  -1.869   7.222  0.00  0.00    -0.041 C 
ATOM     12  C   UNL d   1       2.530  -2.176   8.670  0.00  0.00     0.047 C 
ATOM     13  C   UNL d   1       3.855  -2.725   6.571  0.00  0.00     0.112 C 
ATOM     14  O   UNL d   1       1.659   1.724   4.805  0.00  0.00    -0.271 OA
BRANCH   9  15
ATOM     15  C   UNL d   1       1.096  -0.192   7.506  0.00  0.00     0.227 C 
ATOM     16  O   UNL d   1       0.451   0.720   7.027  0.00  0.00    -0.643 OA
ATOM     17  OXT UNL d   1       0.876  -0.575   8.779  0.00  0.00    -0.643 OA
ENDBRANCH   9  15
ENDBRANCH   1   5
BRANCH   2  18
ATOM     18  CA  UNL d   1       2.490   1.048  -0.016  0.00  0.00     0.307 C 
BRANCH  18  19
ATOM     19  C   UNL d   1       1.175   1.783   0.000  0.00  0.00    -0.019 A 
ATOM     20  C   UNL d   1       1.156   3.165   0.008  0.00  0.00     0.010 A 
ATOM     21  C   UNL d   1      -0.050   3.840   0.022  0.00  0.00     0.001 A 
ATOM     22  C   UNL d   1      -1.238   3.133   0.029  0.00  0.00     0.000 A 
ATOM     23  C   UNL d   1      -1.219   1.751   0.017  0.00  0.00     0.001 A 
ATOM     24  C   UNL d   1      -0.013   1.076   0.008  0.00  0.00     0.010 A 
ENDBRANCH  18  19
BRANCH  18  25
ATOM     25  N   UNL d   1       3.448   1.724  -0.908  0.00  0.00    -0.062 N 
ATOM     26  H1  UNL d   1       3.096   1.721  -1.864  0.00  0.00     0.275 HD
ATOM     27  H2  UNL d   1       3.590   2.686  -0.603  0.00  0.00     0.275 HD
ATOM     28  H3  UNL d   1       4.346   1.228  -0.879  0.00  0.00     0.275 HD
ENDBRANCH  18  25
ENDBRANCH   2  18
TORSDOF 5
