REMARK  7 active torsions:
REMARK  status: ('A' for Active; 'I' for Inactive)
REMARK    1  A    between atoms: C_4  and  C_7 
REMARK    2  A    between atoms: C_7  and  C_29 
REMARK    3  A    between atoms: C_12  and  C_13 
REMARK    4  A    between atoms: C_12  and  N_31 
REMARK    5  A    between atoms: C_13  and  C_14 
REMARK    6  A    between atoms: C_14  and  C_17 
REMARK    7  A    between atoms: C_14  and  C_23 
ROOT
ATOM      1  C   UNL d   1      -0.693   4.066  -6.161  0.00  0.00     0.104 C 
ATOM      2  C   UNL d   1       0.714   3.663  -6.315  0.00  0.00     0.079 C 
ATOM      3  N   UNL d   1       1.800   3.352  -6.433  0.00  0.00    -0.196 NA
ENDROOT
BRANCH   1   4
ATOM      4  C   UNL d   1      -1.255   3.473  -4.868  0.00  0.00     0.062 C 
BRANCH   4   5
ATOM      5  C   UNL d   1      -0.506   4.060  -3.670  0.00  0.00     0.237 C 
BRANCH   5   6
ATOM      6  N   UNL d   1      -1.161   3.614  -2.423  0.00  0.00    -0.071 N 
ATOM      7  C   UNL d   1      -1.407   2.157  -2.475  0.00  0.00     0.236 C 
ATOM      8  C   UNL d   1      -2.192   1.740  -1.227  0.00  0.00     0.053 C 
ATOM      9  C   UNL d   1      -1.373   2.082   0.020  0.00  0.00     0.078 C 
ATOM     10  C   UNL d   1      -1.062   3.581   0.023  0.00  0.00     0.053 C 
ATOM     11  C   UNL d   1      -0.311   3.944  -1.260  0.00  0.00     0.236 C 
ATOM     12  H   UNL d   1      -2.061   4.100  -2.327  0.00  0.00     0.279 HD
BRANCH   9  13
ATOM     13  C   UNL d   1      -2.163   1.729   1.254  0.00  0.00    -0.039 A 
ATOM     14  C   UNL d   1      -2.563   0.423   1.468  0.00  0.00     0.008 A 
ATOM     15  C   UNL d   1      -3.288   0.100   2.600  0.00  0.00     0.001 A 
ATOM     16  C   UNL d   1      -3.613   1.081   3.517  0.00  0.00     0.000 A 
ATOM     17  C   UNL d   1      -3.213   2.387   3.303  0.00  0.00     0.001 A 
ATOM     18  C   UNL d   1      -2.483   2.710   2.174  0.00  0.00     0.008 A 
ENDBRANCH   9  13
BRANCH   9  19
ATOM     19  C   UNL d   1      -0.084   1.300   0.007  0.00  0.00     0.186 C 
ATOM     20  O   UNL d   1       0.975   1.882  -0.002  0.00  0.00    -0.647 OA
ATOM     21  O   UNL d   1      -0.113  -0.042  -0.000  0.00  0.00    -0.647 OA
ENDBRANCH   9  19
ENDBRANCH   5   6
ENDBRANCH   4   5
ENDBRANCH   1   4
BRANCH   1  22
ATOM     22  C   UNL d   1      -1.492   3.558  -7.335  0.00  0.00    -0.031 A 
ATOM     23  C   UNL d   1      -1.109   3.882  -8.623  0.00  0.00     0.009 A 
ATOM     24  C   UNL d   1      -1.840   3.416  -9.699  0.00  0.00     0.001 A 
ATOM     25  C   UNL d   1      -2.956   2.627  -9.487  0.00  0.00     0.000 A 
ATOM     26  C   UNL d   1      -3.338   2.304  -8.199  0.00  0.00     0.001 A 
ATOM     27  C   UNL d   1      -2.603   2.765  -7.123  0.00  0.00     0.009 A 
ENDBRANCH   1  22
BRANCH   1  28
ATOM     28  C   UNL d   1      -0.783   5.569  -6.105  0.00  0.00    -0.031 A 
ATOM     29  C   UNL d   1      -2.019   6.187  -6.069  0.00  0.00     0.009 A 
ATOM     30  C   UNL d   1      -2.100   7.566  -6.017  0.00  0.00     0.001 A 
ATOM     31  C   UNL d   1      -0.947   8.327  -6.002  0.00  0.00     0.000 A 
ATOM     32  C   UNL d   1       0.289   7.709  -6.038  0.00  0.00     0.001 A 
ATOM     33  C   UNL d   1       0.371   6.329  -6.085  0.00  0.00     0.009 A 
ENDBRANCH   1  28
TORSDOF 7
