REMARK  10 active torsions:
REMARK  status: ('A' for Active; 'I' for Inactive)
REMARK    1  A    between atoms: C_2  and  N_25 
REMARK    2  A    between atoms: C_3  and  N_25 
REMARK    3  A    between atoms: C_5  and  C_6 
REMARK    4  A    between atoms: C_5  and  N_25 
REMARK    5  A    between atoms: C_6  and  O_7 
REMARK    6  A    between atoms: O_7  and  C_8 
REMARK    7  A    between atoms: C_8  and  C_10 
REMARK    8  A    between atoms: C_10  and  C_11 
REMARK    9  A    between atoms: C_10  and  C_17 
REMARK   10  A    between atoms: C_10  and  O_23 
ROOT
ATOM      1  C   UNL d   1      -0.915   0.378  -0.522  0.00  0.00     0.201 C 
ENDROOT
BRANCH   1   2
ATOM      2  C   UNL d   1      -1.001   0.224  -2.019  0.00  0.00     0.303 C 
ATOM      3  O   UNL d   1      -2.080   0.207  -2.563  0.00  0.00    -0.261 OA
BRANCH   2   4
ATOM      4  O   UNL d   1       0.120   0.105  -2.747  0.00  0.00    -0.317 OA
BRANCH   4   5
ATOM      5  C   UNL d   1      -0.039  -0.040  -4.183  0.00  0.00     0.206 C 
BRANCH   5   6
ATOM      6  C   UNL d   1       1.338  -0.161  -4.839  0.00  0.00     0.261 C 
BRANCH   6   7
ATOM      7  N   UNL d   1       1.985  -1.402  -4.364  0.00  0.00    -0.070 N 
ATOM      8  H   UNL d   1       1.959  -1.420  -3.338  0.00  0.00     0.279 HD
BRANCH   7   9
ATOM      9  C   UNL d   1       1.260  -2.581  -4.884  0.00  0.00     0.230 C 
ATOM     10  C   UNL d   1       1.274  -2.587  -6.413  0.00  0.00     0.034 C 
ENDBRANCH   7   9
BRANCH   7  11
ATOM     11  C   UNL d   1       3.394  -1.439  -4.809  0.00  0.00     0.230 C 
ATOM     12  C   UNL d   1       4.123  -2.544  -4.041  0.00  0.00     0.034 C 
ENDBRANCH   7  11
ENDBRANCH   6   7
ENDBRANCH   5   6
ENDBRANCH   4   5
ENDBRANCH   2   4
ENDBRANCH   1   2
BRANCH   1  13
ATOM     13  C   UNL d   1      -0.709   1.831  -0.178  0.00  0.00    -0.009 A 
ATOM     14  C   UNL d   1       0.104   2.181   0.883  0.00  0.00     0.011 A 
ATOM     15  C   UNL d   1       0.293   3.514   1.199  0.00  0.00     0.001 A 
ATOM     16  C   UNL d   1      -0.332   4.496   0.454  0.00  0.00     0.000 A 
ATOM     17  C   UNL d   1      -1.146   4.145  -0.608  0.00  0.00     0.001 A 
ATOM     18  C   UNL d   1      -1.330   2.813  -0.927  0.00  0.00     0.011 A 
ENDBRANCH   1  13
BRANCH   1  19
ATOM     19  C   UNL d   1      -2.193  -0.112   0.108  0.00  0.00    -0.009 A 
ATOM     20  C   UNL d   1      -2.645  -1.392  -0.151  0.00  0.00     0.011 A 
ATOM     21  C   UNL d   1      -3.817  -1.841   0.427  0.00  0.00     0.001 A 
ATOM     22  C   UNL d   1      -4.538  -1.010   1.264  0.00  0.00     0.000 A 
ATOM     23  C   UNL d   1      -4.086   0.270   1.523  0.00  0.00     0.001 A 
ATOM     24  C   UNL d   1      -2.911   0.718   0.949  0.00  0.00     0.011 A 
ENDBRANCH   1  19
BRANCH   1  25
ATOM     25  O   UNL d   1       0.184  -0.389  -0.027  0.00  0.00    -0.371 OA
ATOM     26  H   UNL d   1       0.119  -1.336  -0.213  0.00  0.00     0.212 HD
ENDBRANCH   1  25
TORSDOF 10
