REMARK  6 active torsions:
REMARK  status: ('A' for Active; 'I' for Inactive)
REMARK    1  A    between atoms: C_2  and  C_3 
REMARK    2  A    between atoms: C_3  and  C_4 
REMARK    3  A    between atoms: C_4  and  C_5 
REMARK    4  A    between atoms: C_5  and  O_7 
REMARK    5  A    between atoms: O_7  and  C_8 
REMARK    6  A    between atoms: C_23  and  O_25 
ROOT
ATOM      1  C   UNL d   1       3.609   3.508   1.416  0.00  0.00     0.140 C 
ATOM      2  C   UNL d   1       2.529   3.680   2.509  0.00  0.00     0.034 C 
ATOM      3  C   UNL d   1       1.171   3.720   1.783  0.00  0.00     0.008 C 
ATOM      4  C   UNL d   1       1.477   3.527   0.274  0.00  0.00     0.001 C 
ATOM      5  C   UNL d   1       2.924   4.043   0.145  0.00  0.00    -0.013 C 
ATOM      6  C   UNL d   1       3.618   3.597  -1.119  0.00  0.00     0.013 C 
ATOM      7  C   UNL d   1       3.522   2.083  -1.320  0.00  0.00     0.010 C 
ATOM      8  C   UNL d   1       2.038   1.710  -1.361  0.00  0.00     0.023 C 
ATOM      9  C   UNL d   1       1.427   2.024  -0.001  0.00  0.00    -0.001 C 
ATOM     10  C   UNL d   1      -0.019   1.524   0.010  0.00  0.00     0.010 C 
ATOM     11  C   UNL d   1       0.002  -0.004   0.002  0.00  0.00     0.039 C 
ATOM     12  C   UNL d   1       0.913  -0.528  -1.076  0.00  0.00    -0.049 A 
ATOM     13  C   UNL d   1       1.863   0.256  -1.697  0.00  0.00    -0.047 A 
ATOM     14  C   UNL d   1       2.682  -0.294  -2.674  0.00  0.00     0.011 A 
ATOM     15  C   UNL d   1       2.549  -1.617  -3.039  0.00  0.00     0.037 A 
ATOM     16  C   UNL d   1       1.589  -2.406  -2.424  0.00  0.00     0.066 A 
ATOM     17  C   UNL d   1       0.776  -1.859  -1.446  0.00  0.00     0.044 A 
ATOM     18  C   UNL d   1       2.918   5.571   0.203  0.00  0.00     0.018 C 
ENDROOT
BRANCH   1  19
ATOM     19  O   UNL d   1       4.786   4.296   1.732  0.00  0.00    -0.315 OA
BRANCH  19  20
ATOM     20  C   UNL d   1       5.792   3.666   2.359  0.00  0.00     0.259 C 
ATOM     21  O   UNL d   1       5.691   2.493   2.635  0.00  0.00    -0.265 OA
BRANCH  20  22
ATOM     22  C   UNL d   1       7.046   4.419   2.720  0.00  0.00     0.111 C 
BRANCH  22  23
ATOM     23  C   UNL d   1       8.025   3.475   3.420  0.00  0.00     0.009 C 
BRANCH  23  24
ATOM     24  C   UNL d   1       9.298   4.240   3.786  0.00  0.00    -0.004 C 
ATOM     25  C   UNL d   1      10.277   3.296   4.487  0.00  0.00     0.005 C 
ENDBRANCH  23  24
ENDBRANCH  22  23
ENDBRANCH  20  22
ENDBRANCH  19  20
ENDBRANCH   1  19
BRANCH  16  26
ATOM     26  O   UNL d   1       1.446  -3.710  -2.780  0.00  0.00    -0.361 OA
ATOM     27  H   UNL d   1       0.818  -3.854  -3.501  0.00  0.00     0.217 HD
ENDBRANCH  16  26
TORSDOF 6
