REMARK  2 active torsions:
REMARK  status: ('A' for Active; 'I' for Inactive)
REMARK    1  A    between atoms: C_2  and  C_3 
REMARK    2  A    between atoms: C_3  and  O_22 
ROOT
ATOM      1  C   UNL d   1      -3.191   2.061  -3.318  0.00  0.00     0.065 C 
ATOM      2  C   UNL d   1      -1.807   1.693  -3.880  0.00  0.00     0.039 C 
ATOM      3  C   UNL d   1      -0.894   2.909  -3.638  0.00  0.00     0.009 C 
ATOM      4  C   UNL d   1      -1.528   3.663  -2.438  0.00  0.00     0.001 C 
ATOM      5  C   UNL d   1      -3.025   3.395  -2.583  0.00  0.00    -0.009 C 
ATOM      6  C   UNL d   1      -3.825   3.468  -1.306  0.00  0.00     0.013 C 
ATOM      7  C   UNL d   1      -3.130   2.849  -0.098  0.00  0.00     0.006 C 
ATOM      8  C   UNL d   1      -1.755   3.500   0.056  0.00  0.00    -0.002 C 
ATOM      9  C   UNL d   1      -0.912   3.109  -1.158  0.00  0.00    -0.005 C 
ATOM     10  C   UNL d   1      -0.754   1.594  -1.232  0.00  0.00     0.010 C 
ATOM     11  C   UNL d   1      -0.013   1.086   0.008  0.00  0.00     0.035 C 
ATOM     12  C   UNL d   1      -0.728   1.580   1.250  0.00  0.00    -0.072 C 
ATOM     13  C   UNL d   1      -1.028   0.687   2.193  0.00  0.00     0.053 C 
ATOM     14  C   UNL d   1      -1.679   1.121   3.433  0.00  0.00     0.149 C 
ATOM     15  O   UNL d   1      -2.281   0.341   4.142  0.00  0.00    -0.293 OA
ATOM     16  C   UNL d   1      -1.565   2.591   3.784  0.00  0.00     0.084 C 
ATOM     17  C   UNL d   1      -1.927   3.404   2.543  0.00  0.00     0.017 C 
ATOM     18  C   UNL d   1      -1.075   3.034   1.344  0.00  0.00     0.019 C 
ATOM     19  C   UNL d   1      -3.594   4.490  -3.518  0.00  0.00     0.019 C 
ENDROOT
BRANCH   1  20
ATOM     20  C   UNL d   1      -4.187   2.232  -4.475  0.00  0.00     0.034 C 
ATOM     21  C   UNL d   1      -4.351   0.898  -5.207  0.00  0.00     0.008 C 
ENDBRANCH   1  20
BRANCH   1  22
ATOM     22  O   UNL d   1      -3.663   1.044  -2.434  0.00  0.00    -0.389 OA
ATOM     23  H   UNL d   1      -3.783   0.182  -2.856  0.00  0.00     0.210 HD
ENDBRANCH   1  22
TORSDOF 2
