REMARK  5 active torsions:
REMARK  status: ('A' for Active; 'I' for Inactive)
REMARK    1  A    between atoms: C_2  and  N_15 
REMARK    2  A    between atoms: C_3  and  N_15 
REMARK    3  A    between atoms: C_5  and  C_7 
REMARK    4  A    between atoms: C_5  and  N_15 
REMARK    5  A    between atoms: C_7  and  C_9 
ROOT
ATOM      1  C   UNL d   1      -0.399   0.390   0.467  0.00  0.00     0.258 C 
ATOM      2  C   UNL d   1      -0.085  -0.372  -0.822  0.00  0.00     0.049 C 
ENDROOT
BRANCH   1   3
ATOM      3  C   UNL d   1       0.607   0.022   1.526  0.00  0.00     0.190 C 
ATOM      4  O   UNL d   1       1.470   0.813   1.844  0.00  0.00    -0.290 OA
BRANCH   3   5
ATOM      5  C   UNL d   1       0.543  -1.298   2.175  0.00  0.00     0.012 A 
ATOM      6  C   UNL d   1       1.476  -1.643   3.158  0.00  0.00     0.015 A 
ATOM      7  C   UNL d   1       1.409  -2.881   3.761  0.00  0.00     0.001 A 
ATOM      8  C   UNL d   1       0.423  -3.781   3.396  0.00  0.00     0.000 A 
ATOM      9  C   UNL d   1      -0.503  -3.446   2.423  0.00  0.00     0.001 A 
ATOM     10  C   UNL d   1      -0.453  -2.210   1.815  0.00  0.00     0.015 A 
ENDBRANCH   3   5
ENDBRANCH   1   3
BRANCH   1  11
ATOM     11  N   UNL d   1      -0.322   1.848   0.233  0.00  0.00    -0.061 N 
ATOM     12  H   UNL d   1       0.044   2.302   1.077  0.00  0.00     0.280 HD
BRANCH  11  13
ATOM     13  C   UNL d   1       0.588   2.131  -0.897  0.00  0.00     0.231 C 
ATOM     14  C   UNL d   1       2.026   1.860  -0.451  0.00  0.00     0.034 C 
ENDBRANCH  11  13
BRANCH  11  15
ATOM     15  C   UNL d   1      -1.668   2.385  -0.056  0.00  0.00     0.231 C 
ATOM     16  C   UNL d   1      -1.630   3.908   0.083  0.00  0.00     0.034 C 
ENDBRANCH  11  15
ENDBRANCH   1  11
TORSDOF 5
