REMARK  2 active torsions:
REMARK  status: ('A' for Active; 'I' for Inactive)
REMARK    1  A    between atoms: N_8  and  C_20 
REMARK    2  A    between atoms: C_13  and  C_14 
ROOT
ATOM      1  C   UNL d   1      -1.313   2.037  -0.826  0.00  0.00     0.048 C 
ATOM      2  C   UNL d   1       0.000   1.328  -0.618  0.00  0.00    -0.060 A 
ATOM      3  C   UNL d   1       1.184   2.052  -0.646  0.00  0.00     0.008 A 
ATOM      4  C   UNL d   1       2.388   1.429  -0.465  0.00  0.00     0.016 A 
ATOM      5  C   UNL d   1       2.424   0.050  -0.251  0.00  0.00     0.019 A 
ATOM      6  C   UNL d   1       1.224  -0.688  -0.223  0.00  0.00     0.052 A 
ATOM      7  C   UNL d   1       0.013  -0.036  -0.408  0.00  0.00     0.037 A 
ATOM      8  N   UNL d   1       1.294  -2.051  -0.009  0.00  0.00    -0.295 N 
ATOM      9  C   UNL d   1       2.486  -2.648   0.167  0.00  0.00     0.328 A 
ATOM     10  O   UNL d   1       2.513  -3.852   0.353  0.00  0.00    -0.246 OA
ATOM     11  N   UNL d   1       3.641  -1.981   0.147  0.00  0.00    -0.307 N 
ATOM     12  HN  UNL d   1       4.512  -2.493   0.287  1.00  0.00     0.170 HD
ATOM     13  C   UNL d   1       3.687  -0.672  -0.050  0.00  0.00     0.059 A 
ENDROOT
BRANCH  13  14
ATOM     14  C   UNL d   1       4.979   0.045  -0.069  0.00  0.00    -0.008 A 
ATOM     15  C   UNL d   1       5.984  -0.297   0.838  0.00  0.00     0.014 A 
ATOM     16  C   UNL d   1       7.188   0.376   0.816  0.00  0.00     0.001 A 
ATOM     17  C   UNL d   1       7.401   1.388  -0.104  0.00  0.00     0.000 A 
ATOM     18  C   UNL d   1       6.410   1.732  -1.006  0.00  0.00     0.001 A 
ATOM     19  C   UNL d   1       5.203   1.063  -0.998  0.00  0.00     0.014 A 
ENDBRANCH  13  14
BRANCH   8  20
ATOM     20  C   UNL d   1       0.066  -2.848   0.027  0.00  0.00     0.086 C 
ATOM     21  C   UNL d   1       0.116  -3.912  -1.072  0.00  0.00     0.032 C 
ATOM     22  C   UNL d   1      -0.061  -3.529   1.391  0.00  0.00     0.032 C 
ENDBRANCH   8  20
TORSDOF 2
