REMARK  9 active torsions:
REMARK  status: ('A' for Active; 'I' for Inactive)
REMARK    1  A    between atoms: C_3  and  O_32 
REMARK    2  A    between atoms: C_6  and  CA_7 
REMARK    3  A    between atoms: CA_7  and  C_8 
REMARK    4  A    between atoms: CA_7  and  N_38 
REMARK       I    between atoms: C_8  and  N_10 
REMARK    5  A    between atoms: N_10  and  CA_11 
REMARK    6  A    between atoms: CA_16  and  C_30 
REMARK    7  A    between atoms: C_17  and  C_20 
REMARK    8  A    between atoms: C_20  and  S_21 
REMARK    9  A    between atoms: S_21  and  C_22 
ROOT
ATOM      1  CA  UNL d   1       2.726  10.799  -1.043  0.00  0.00     0.210 C 
ATOM      2  C   UNL d   1       2.784   9.506  -0.237  0.00  0.00     0.187 C 
ATOM      3  N   UNL d   1       1.845   8.959  -1.267  0.00  0.00    -0.293 N 
ATOM      4  C   UNL d   1       1.974  10.006  -2.099  0.00  0.00     0.251 C 
ATOM      5  O   UNL d   1       1.628  10.230  -3.240  0.00  0.00    -0.271 OA
ATOM      6  CA  UNL d   1       1.051   7.807  -1.142  0.00  0.00     0.119 C 
ATOM      7  C   UNL d   1       0.766   7.319   0.056  0.00  0.00    -0.027 C 
ATOM      8  C   UNL d   1       1.236   7.800   1.390  0.00  0.00     0.113 C 
ATOM      9  S   UNL d   1       1.839   9.515   1.324  0.00  0.00    -0.136 SA
ENDROOT
BRANCH   1  10
ATOM     10  N   UNL d   1       4.038  11.275  -1.488  0.00  0.00    -0.343 N 
ATOM     11  C   UNL d   1       4.228  12.584  -1.747  0.00  0.00     0.253 C 
ATOM     12  O   UNL d   1       3.313  13.368  -1.612  0.00  0.00    -0.271 OA
ATOM     13  H   UNL d   1       4.770  10.648  -1.597  0.00  0.00     0.163 HD
BRANCH  11  14
ATOM     14  CA  UNL d   1       5.578  13.073  -2.205  0.00  0.00     0.307 C 
BRANCH  14  15
ATOM     15  C   UNL d   1       6.491  13.214  -1.015  0.00  0.00    -0.019 A 
ATOM     16  C   UNL d   1       6.404  14.333  -0.207  0.00  0.00     0.012 A 
ATOM     17  C   UNL d   1       7.236  14.462   0.888  0.00  0.00     0.037 A 
ATOM     18  C   UNL d   1       8.168  13.474   1.170  0.00  0.00     0.065 A 
ATOM     19  C   UNL d   1       8.257  12.355   0.355  0.00  0.00     0.037 A 
ATOM     20  C   UNL d   1       7.419  12.228  -0.736  0.00  0.00     0.012 A 
BRANCH  18  21
ATOM     21  O   UNL d   1       8.991  13.601   2.244  0.00  0.00    -0.361 OA
ATOM     22  H   UNL d   1       9.823  14.054   2.050  0.00  0.00     0.217 HD
ENDBRANCH  18  21
ENDBRANCH  14  15
BRANCH  14  23
ATOM     23  N   UNL d   1       5.412  14.370  -2.884  0.00  0.00    -0.062 N 
ATOM     24  H1  UNL d   1       5.034  15.058  -2.234  0.00  0.00     0.275 HD
ATOM     25  H2  UNL d   1       6.309  14.696  -3.238  0.00  0.00     0.275 HD
ATOM     26  H3  UNL d   1       4.761  14.259  -3.670  0.00  0.00     0.275 HD
ENDBRANCH  14  23
ENDBRANCH  11  14
ENDBRANCH   1  10
BRANCH   6  27
ATOM     27  C   UNL d   1       0.528   7.141  -2.349  0.00  0.00     0.227 C 
ATOM     28  O   UNL d   1       0.672   7.659  -3.439  0.00  0.00    -0.643 OA
ATOM     29  OXT UNL d   1      -0.110   5.959  -2.244  0.00  0.00    -0.643 OA
ENDBRANCH   6  27
BRANCH   7  30
ATOM     30  C   UNL d   1      -0.146   6.119   0.075  0.00  0.00     0.118 C 
BRANCH  30  31
ATOM     31  S   UNL d   1       0.832   4.613  -0.183  0.00  0.00    -0.105 SA
BRANCH  31  32
ATOM     32  C   UNL d   1      -0.362   3.317  -0.134  0.00  0.00     0.103 A 
ATOM     33  C   UNL d   1      -0.125   1.986  -0.278  0.00  0.00     0.146 A 
ATOM     34  N   UNL d   1      -1.338   1.376  -0.168  0.00  0.00    -0.295 N 
ATOM     35  N   UNL d   1      -2.229   2.285   0.021  0.00  0.00    -0.242 N 
ATOM     36  HN  UNL d   1      -1.510   0.372  -0.226  1.00  0.00     0.187 HD
ATOM     37  H   UNL d   1      -3.208   2.112   0.127  0.00  0.00     0.208 HD
ATOM     38  N   UNL d   1      -1.683   3.449   0.052  0.00  0.00    -0.279 N 
ATOM     39  HN  UNL d   1      -2.175   4.330   0.197  1.00  0.00     0.189 HD
ENDBRANCH  31  32
ENDBRANCH  30  31
ENDBRANCH   7  30
TORSDOF 9
