REMARK  2 active torsions:
REMARK  status: ('A' for Active; 'I' for Inactive)
REMARK    1  A    between atoms: C_4  and  C_7 
REMARK    2  A    between atoms: C_9  and  N_12 
ROOT
ATOM      1  C   UNL d   1      -1.136   1.773   0.788  0.00  0.00     0.051 A 
ATOM      2  C   UNL d   1      -1.150   1.781  -0.743  0.00  0.00     0.045 A 
ATOM      3  C   UNL d   1      -0.013   1.086   0.008  0.00  0.00     0.192 A 
ENDROOT
BRANCH   1   4
ATOM      4  C   UNL d   1      -2.136   0.891   1.489  0.00  0.00    -0.052 A 
ATOM      5  C   UNL d   1      -2.291   0.975   2.860  0.00  0.00     0.007 A 
ATOM      6  C   UNL d   1      -3.209   0.166   3.503  0.00  0.00     0.001 A 
ATOM      7  C   UNL d   1      -3.973  -0.727   2.775  0.00  0.00     0.000 A 
ATOM      8  C   UNL d   1      -3.819  -0.810   1.404  0.00  0.00     0.001 A 
ATOM      9  C   UNL d   1      -2.904   0.002   0.760  0.00  0.00     0.007 A 
ENDBRANCH   1   4
BRANCH   3  10
ATOM     10  N   UNL d   1       1.309   1.737   0.024  0.00  0.00    -0.074 N 
ATOM     11  H   UNL d   1       1.968   1.204  -0.543  0.00  0.00     0.274 HD
ATOM     12  H   UNL d   1       1.236   2.684  -0.343  0.00  0.00     0.274 HD
ATOM     13  H   UNL d   1       1.654   1.777   0.990  0.00  0.00     0.274 HD
ENDBRANCH   3  10
TORSDOF 2
