REMARK  3 active torsions:
REMARK  status: ('A' for Active; 'I' for Inactive)
REMARK    1  A    between atoms: C_2  and  C_17 
REMARK    2  A    between atoms: C_3  and  S_13 
REMARK    3  A    between atoms: S_13  and  N_16 
ROOT
ATOM      1  C   UNL d   1      -3.894  -1.226  -1.078  0.00  0.00     0.048 A 
ATOM      2  C   UNL d   1      -2.895  -0.275  -1.073  0.00  0.00     0.073 A 
ATOM      3  C   UNL d   1      -2.733   0.560   0.018  0.00  0.00     0.096 A 
ATOM      4  C   UNL d   1      -3.579   0.442   1.107  0.00  0.00     0.053 A 
ATOM      5  C   UNL d   1      -4.581  -0.504   1.102  0.00  0.00     0.107 A 
ATOM      6  C   UNL d   1      -4.756  -1.344   0.010  0.00  0.00     0.053 A 
ATOM      7  N   UNL d   1      -5.774  -2.293  -0.040  0.00  0.00    -0.372 N 
ATOM      8  C   UNL d   1      -6.438  -2.821   1.149  0.00  0.00     0.255 C 
ATOM      9  N   UNL d   1      -6.863  -1.688   1.997  0.00  0.00    -0.299 N 
ATOM     10  S   UNL d   1      -5.649  -0.662   2.502  0.00  0.00     0.262 S 
ATOM     11  O   UNL d   1      -4.917  -1.348   3.508  0.00  0.00    -0.200 OA
ATOM     12  O   UNL d   1      -6.244   0.611   2.716  0.00  0.00    -0.200 OA
ATOM     13  H   UNL d   1      -6.056  -2.620  -0.908  0.00  0.00     0.161 HD
ATOM     14  H   UNL d   1      -7.791  -1.550   2.244  0.00  0.00     0.174 HD
ENDROOT
BRANCH   3  15
ATOM     15  S   UNL d   1      -1.456   1.774   0.019  0.00  0.00     0.257 S 
ATOM     16  O   UNL d   1      -1.536   2.446   1.268  0.00  0.00    -0.201 OA
ATOM     17  O   UNL d   1      -1.548   2.460  -1.223  0.00  0.00    -0.201 OA
BRANCH  15  18
ATOM     18  N   UNL d   1      -0.011   0.966   0.007  0.00  0.00    -0.324 N 
ATOM     19  H   UNL d   1       0.002  -0.004   0.002  0.00  0.00     0.169 HD
ATOM     20  H   UNL d   1       0.822   1.462   0.002  0.00  0.00     0.169 HD
ENDBRANCH  15  18
ENDBRANCH   3  15
BRANCH   2  21
ATOM     21  C   UNL d   1      -1.973  -0.148  -2.258  0.00  0.00     0.419 C 
ATOM     22  F   UNL d   1      -2.329  -1.090  -3.229  0.00  0.00    -0.166 F 
ATOM     23  F   UNL d   1      -2.079   1.139  -2.796  0.00  0.00    -0.166 F 
ATOM     24  F   UNL d   1      -0.654  -0.375  -1.849  0.00  0.00    -0.166 F 
ENDBRANCH   2  21
TORSDOF 3
