REMARK  3 active torsions:
REMARK  status: ('A' for Active; 'I' for Inactive)
REMARK    1  A    between atoms: C_2  and  C_3 
REMARK    2  A    between atoms: C_3  and  O_5 
REMARK    3  A    between atoms: O_5  and  C_6 
ROOT
ATOM      1  C   UNL d   1      -1.912   4.012   0.111  0.00  0.00     0.140 C 
ATOM      2  C   UNL d   1      -2.841   2.809  -0.132  0.00  0.00     0.034 C 
ATOM      3  C   UNL d   1      -2.362   1.679   0.799  0.00  0.00     0.008 C 
ATOM      4  C   UNL d   1      -0.889   2.040   1.150  0.00  0.00     0.001 C 
ATOM      5  C   UNL d   1      -0.913   3.573   1.188  0.00  0.00    -0.013 C 
ATOM      6  C   UNL d   1       0.435   4.227   1.037  0.00  0.00     0.012 C 
ATOM      7  C   UNL d   1       1.355   3.619   0.003  0.00  0.00     0.007 C 
ATOM      8  C   UNL d   1       1.380   2.100   0.000  0.00  0.00    -0.002 C 
ATOM      9  C   UNL d   1      -0.019   1.524   0.010  0.00  0.00    -0.005 C 
ATOM     10  C   UNL d   1       0.002  -0.004   0.002  0.00  0.00     0.006 C 
ATOM     11  C   UNL d   1       0.884  -0.530   1.135  0.00  0.00     0.006 C 
ATOM     12  C   UNL d   1       2.307  -0.011   0.938  0.00  0.00     0.001 C 
ATOM     13  C   UNL d   1       2.330   1.518   1.039  0.00  0.00    -0.035 C 
ATOM     14  C   UNL d   1       3.753   1.997   0.707  0.00  0.00     0.021 C 
ATOM     15  C   UNL d   1       4.767   1.448   1.709  0.00  0.00     0.052 C 
ATOM     16  C   UNL d   1       4.619  -0.053   1.813  0.00  0.00     0.131 C 
ATOM     17  O   UNL d   1       5.590  -0.773   1.767  0.00  0.00    -0.298 OA
ATOM     18  C   UNL d   1       3.235  -0.638   1.978  0.00  0.00     0.084 C 
ATOM     19  C   UNL d   1       6.185   1.779   1.224  0.00  0.00     0.018 C 
ATOM     20  C   UNL d   1       1.978   1.959   2.454  0.00  0.00     0.016 C 
ATOM     21  C   UNL d   1      -1.485   4.000   2.554  0.00  0.00     0.018 C 
ENDROOT
BRANCH   1  22
ATOM     22  O   UNL d   1      -1.228   4.378  -1.114  0.00  0.00    -0.315 OA
BRANCH  22  23
ATOM     23  C   UNL d   1      -1.809   5.314  -1.881  0.00  0.00     0.258 C 
ATOM     24  O   UNL d   1      -2.855   5.811  -1.538  0.00  0.00    -0.265 OA
BRANCH  23  25
ATOM     25  C   UNL d   1      -1.156   5.745  -3.169  0.00  0.00     0.106 C 
ATOM     26  C   UNL d   1      -2.017   6.814  -3.844  0.00  0.00     0.015 C 
ENDBRANCH  23  25
ENDBRANCH  22  23
ENDBRANCH   1  22
TORSDOF 3
