REMARK  14 active torsions:
REMARK  status: ('A' for Active; 'I' for Inactive)
REMARK    1  A    between atoms: C_2  and  C_3 
REMARK    2  A    between atoms: C_3  and  O_57 
REMARK    3  A    between atoms: C_5  and  O_29 
REMARK    4  A    between atoms: C_11  and  O_12 
REMARK    5  A    between atoms: C_20  and  O_21 
REMARK    6  A    between atoms: C_24  and  C_25 
REMARK    7  A    between atoms: C_25  and  O_27 
REMARK    8  A    between atoms: O_29  and  C_30 
REMARK    9  A    between atoms: C_32  and  N_62 
REMARK   10  A    between atoms: C_33  and  O_37 
REMARK   11  A    between atoms: O_37  and  C_38 
REMARK   12  A    between atoms: C_40  and  O_54 
REMARK   13  A    between atoms: C_41  and  O_45 
REMARK   14  A    between atoms: O_45  and  C_46 
ROOT
ATOM      1  C   UNL d   1      -4.521  11.502   0.952  0.00  0.00     0.077 C 
ATOM      2  C   UNL d   1      -3.122  11.194   1.500  0.00  0.00     0.076 C 
ATOM      3  C   UNL d   1      -2.627   9.902   0.854  0.00  0.00     0.163 C 
ATOM      4  C   UNL d   1      -3.657   8.811   0.992  0.00  0.00     0.012 A 
ATOM      5  C   UNL d   1      -4.975   9.071   1.288  0.00  0.00    -0.029 A 
ATOM      6  C   UNL d   1      -5.887   8.023   1.396  0.00  0.00     0.025 A 
ATOM      7  C   UNL d   1      -5.481   6.711   1.210  0.00  0.00     0.032 A 
ATOM      8  C   UNL d   1      -4.132   6.438   0.911  0.00  0.00     0.063 A 
ATOM      9  C   UNL d   1      -3.228   7.493   0.804  0.00  0.00     0.090 A 
ATOM     10  C   UNL d   1      -3.694   5.042   0.718  0.00  0.00     0.199 C 
ATOM     11  O   UNL d   1      -2.611   4.801   0.219  0.00  0.00    -0.286 OA
ATOM     12  C   UNL d   1      -4.584   3.942   1.136  0.00  0.00     0.062 A 
ATOM     13  C   UNL d   1      -5.934   4.211   1.435  0.00  0.00     0.032 A 
ATOM     14  C   UNL d   1      -6.774   3.175   1.825  0.00  0.00     0.017 A 
ATOM     15  C   UNL d   1      -6.279   1.885   1.931  0.00  0.00     0.004 A 
ATOM     16  C   UNL d   1      -4.958   1.614   1.640  0.00  0.00     0.037 A 
ATOM     17  C   UNL d   1      -4.100   2.636   1.241  0.00  0.00     0.080 A 
ATOM     18  C   UNL d   1      -6.445   5.595   1.325  0.00  0.00     0.194 C 
ATOM     19  O   UNL d   1      -7.640   5.812   1.329  0.00  0.00    -0.287 OA
ATOM     20  C   UNL d   1      -5.495  10.468   1.512  0.00  0.00     0.153 C 
ENDROOT
BRANCH   3  21
ATOM     21  O   UNL d   1      -1.417   9.490   1.493  0.00  0.00    -0.351 OA
BRANCH  21  22
ATOM     22  C   UNL d   1      -0.231   9.984   0.866  0.00  0.00     0.263 C 
ATOM     23  O   UNL d   1      -0.122  11.391   1.093  0.00  0.00    -0.354 OA
ATOM     24  C   UNL d   1       1.021  11.993   0.484  0.00  0.00     0.151 C 
ATOM     25  C   UNL d   1       2.294  11.367   1.059  0.00  0.00     0.184 C 
ATOM     26  C   UNL d   1       1.019  13.496   0.769  0.00  0.00     0.042 C 
ATOM     27  C   UNL d   1       2.261   9.854   0.823  0.00  0.00     0.223 C 
ATOM     28  C   UNL d   1       0.991   9.277   1.456  0.00  0.00     0.096 C 
BRANCH  25  29
ATOM     29  O   UNL d   1       2.364  11.629   2.462  0.00  0.00    -0.351 OA
BRANCH  29  30
ATOM     30  C   UNL d   1       3.691  11.839   2.949  0.00  0.00     0.263 C 
ATOM     31  O   UNL d   1       4.223  13.038   2.380  0.00  0.00    -0.354 OA
ATOM     32  C   UNL d   1       5.563  13.330   2.783  0.00  0.00     0.152 C 
ATOM     33  C   UNL d   1       5.608  13.520   4.301  0.00  0.00     0.182 C 
ATOM     34  C   UNL d   1       6.035  14.612   2.094  0.00  0.00     0.042 C 
ATOM     35  C   UNL d   1       5.078  12.254   4.982  0.00  0.00     0.154 C 
ATOM     36  C   UNL d   1       3.661  11.969   4.474  0.00  0.00     0.095 C 
BRANCH  33  37
ATOM     37  O   UNL d   1       4.794  14.635   4.668  0.00  0.00    -0.351 OA
BRANCH  37  38
ATOM     38  C   UNL d   1       5.325  15.415   5.740  0.00  0.00     0.261 C 
ATOM     39  O   UNL d   1       6.479  16.125   5.286  0.00  0.00    -0.349 OA
ATOM     40  C   UNL d   1       7.158  16.855   6.313  0.00  0.00     0.190 C 
ATOM     41  C   UNL d   1       6.165  17.789   6.970  0.00  0.00     0.155 C 
ATOM     42  C   UNL d   1       8.302  17.665   5.699  0.00  0.00     0.048 C 
ATOM     43  C   UNL d   1       4.831  17.214   7.399  0.00  0.00     0.086 C 
ATOM     44  O   UNL d   1       6.427  18.955   7.146  0.00  0.00    -0.295 OA
ATOM     45  C   UNL d   1       4.264  16.407   6.223  0.00  0.00     0.068 C 
ENDBRANCH  37  38
ENDBRANCH  33  37
BRANCH  35  46
ATOM     46  O   UNL d   1       5.047  12.449   6.397  0.00  0.00    -0.393 OA
ATOM     47  H   UNL d   1       4.715  11.688   6.893  0.00  0.00     0.210 HD
ENDBRANCH  35  46
ENDBRANCH  29  30
ENDBRANCH  25  29
BRANCH  27  48
ATOM     48  N   UNL d   1       3.445   9.244   1.464  0.00  0.00    -0.072 N 
ATOM     49  C   UNL d   1       3.297   7.774   1.502  0.00  0.00     0.269 C 
ATOM     50  C   UNL d   1       4.668   9.610   0.720  0.00  0.00     0.269 C 
ATOM     51  H   UNL d   1       3.521   9.596   2.426  0.00  0.00     0.279 HD
ENDBRANCH  27  48
ENDBRANCH  21  22
ENDBRANCH   3  21
BRANCH   1  52
ATOM     52  C   UNL d   1      -4.950  12.904   1.389  0.00  0.00     0.034 C 
ATOM     53  C   UNL d   1      -3.971  13.936   0.825  0.00  0.00     0.008 C 
ENDBRANCH   1  52
BRANCH   1  54
ATOM     54  O   UNL d   1      -4.506  11.426  -0.475  0.00  0.00    -0.389 OA
ATOM     55  H   UNL d   1      -3.907  12.057  -0.897  0.00  0.00     0.210 HD
ENDBRANCH   1  54
BRANCH   9  56
ATOM     56  O   UNL d   1      -1.927   7.240   0.516  0.00  0.00    -0.359 OA
ATOM     57  H   UNL d   1      -1.388   7.026   1.289  0.00  0.00     0.217 HD
ENDBRANCH   9  56
BRANCH  20  58
ATOM     58  C   UNL d   1      -6.828  10.618   0.825  0.00  0.00     0.270 C 
ATOM     59  O   UNL d   1      -6.972  11.451  -0.038  0.00  0.00    -0.264 OA
BRANCH  58  60
ATOM     60  O   UNL d   1      -7.855   9.826   1.173  0.00  0.00    -0.326 OA
ATOM     61  C   UNL d   1      -9.109  10.027   0.469  0.00  0.00     0.213 C 
ENDBRANCH  58  60
ENDBRANCH  20  58
BRANCH  17  62
ATOM     62  O   UNL d   1      -2.803   2.364   0.955  0.00  0.00    -0.360 OA
ATOM     63  H   UNL d   1      -2.643   2.138   0.029  0.00  0.00     0.217 HD
ENDBRANCH  17  62
TORSDOF 14
