REMARK  3 active torsions:
REMARK  status: ('A' for Active; 'I' for Inactive)
REMARK    1  A    between atoms: C_6  and  O_8 
REMARK    2  A    between atoms: O_8  and  C_9 
REMARK    3  A    between atoms: C_9  and  C_10 
ROOT
ATOM      1  O   UNL d   1      -0.230   1.035   2.414  0.00  0.00    -0.349 OA
ENDROOT
BRANCH   1   2
ATOM      2  C   UNL d   1      -0.802   1.394   3.594  0.00  0.00     0.069 A 
ATOM      3  C   UNL d   1      -0.317   0.879   4.787  0.00  0.00     0.043 A 
ATOM      4  C   UNL d   1      -0.900   1.246   5.984  0.00  0.00    -0.059 A 
ATOM      5  C   UNL d   1      -1.967   2.126   5.994  0.00  0.00     0.013 A 
ATOM      6  C   UNL d   1      -0.373   0.688   7.281  0.00  0.00     0.048 C 
ATOM      7  C   UNL d   1      -2.452   2.641   4.806  0.00  0.00    -0.059 A 
ATOM      8  C   UNL d   1      -3.615   3.599   4.820  0.00  0.00     0.048 C 
ATOM      9  C   UNL d   1      -1.869   2.281   3.606  0.00  0.00     0.043 A 
ENDBRANCH   1   2
BRANCH   1  10
ATOM     10  C   UNL d   1      -0.781   1.604   1.225  0.00  0.00     0.210 C 
BRANCH  10  11
ATOM     11  C   UNL d   1      -0.013   1.086   0.008  0.00  0.00     0.175 A 
ATOM     12  O   UNL d   1       1.345   1.615  -0.002  0.00  0.00    -0.295 OA
ATOM     13  C   UNL d   1       1.530   2.346  -1.107  0.00  0.00     0.361 A 
ATOM     14  N   UNL d   1       0.454   2.407  -1.904  0.00  0.00    -0.334 N 
ATOM     15  O   UNL d   1       2.579   2.904  -1.365  0.00  0.00    -0.239 OA
ATOM     16  C   UNL d   1      -0.633   1.625  -1.296  0.00  0.00     0.159 A 
ATOM     17  H   UNL d   1       0.401   2.888  -2.744  0.00  0.00     0.164 HD
ENDBRANCH  10  11
ENDBRANCH   1  10
TORSDOF 3
