REMARK  1 active torsions:
REMARK  status: ('A' for Active; 'I' for Inactive)
REMARK    1  A    between atoms: C2_2  and  C4_5 
ROOT
ATOM      1  C1  <1> d   1       1.696  -0.246  -0.681  0.00  0.00     0.119 C 
ATOM      2  C2  <1> d   1       2.130   1.221  -0.937  0.00  0.00     0.295 C 
ATOM      3  C3  <1> d   1      -0.023   1.840   0.012  0.00  0.00     0.307 C 
ATOM      4  S1  <1> d   1       0.002  -0.004   0.002  0.00  0.00    -0.139 SA
ATOM      5  N1  <1> d   1       1.445   2.132   0.002  0.00  0.00    -0.052 N 
ATOM      6  H6  <1> d   1       1.597   3.104  -0.294  0.00  0.00     0.279 HD
ATOM      7  H7  <1> d   1       1.826   1.998   0.946  0.00  0.00     0.279 HD
ENDROOT
BRANCH   2   8
ATOM      8  C4  <1> d   1       3.620   1.341  -0.743  0.00  0.00     0.205 C 
ATOM      9  O1  <1> d   1       4.061   1.783   0.292  0.00  0.00    -0.646 OA
ATOM     10  O2  <1> d   1       4.457   0.956  -1.719  0.00  0.00    -0.646 OA
ENDBRANCH   2   8
TORSDOF 1
