REMARK  6 active torsions:
REMARK  status: ('A' for Active; 'I' for Inactive)
REMARK    1  A    between atoms: C_2  and  C_3 
REMARK    2  A    between atoms: C_3  and  C_4 
REMARK    3  A    between atoms: C_20  and  O_30 
REMARK    4  A    between atoms: C_23  and  C_25 
REMARK    5  A    between atoms: C_25  and  C_27 
REMARK    6  A    between atoms: C_27  and  O_28 
ROOT
ATOM      1  C   UNL d   1       2.124  -0.458  -5.198  0.00  0.00     0.262 C 
ATOM      2  O   UNL d   1       0.879   0.242  -5.399  0.00  0.00    -0.352 OA
ATOM      3  C   UNL d   1       1.040   1.514  -4.739  0.00  0.00     0.168 C 
ATOM      4  C   UNL d   1      -0.234   1.765  -3.880  0.00  0.00     0.041 C 
ATOM      5  C   UNL d   1       0.133   1.083  -2.556  0.00  0.00     0.004 C 
ATOM      6  C   UNL d   1      -0.750   1.303  -1.373  0.00  0.00    -0.001 C 
ATOM      7  C   UNL d   1      -1.153   2.754  -1.126  0.00  0.00     0.010 C 
ATOM      8  C   UNL d   1      -2.412   2.716  -0.251  0.00  0.00     0.036 C 
ATOM      9  C   UNL d   1      -2.184   1.813   0.931  0.00  0.00    -0.064 C 
ATOM     10  C   UNL d   1      -3.149   1.804   1.877  0.00  0.00     0.058 C 
ATOM     11  C   UNL d   1      -2.925   0.924   3.051  0.00  0.00     0.172 C 
ATOM     12  O   UNL d   1      -3.273   1.236   4.178  0.00  0.00    -0.289 OA
ATOM     13  C   UNL d   1      -2.247  -0.365   2.755  0.00  0.00     0.052 C 
ATOM     14  C   UNL d   1      -1.294  -0.338   1.808  0.00  0.00    -0.009 C 
ATOM     15  C   UNL d   1      -0.975   0.961   1.114  0.00  0.00     0.004 C 
ATOM     16  C   UNL d   1      -0.120   0.725  -0.103  0.00  0.00     0.035 C 
ATOM     17  C   UNL d   1       1.350   1.047   0.068  0.00  0.00     0.124 C 
ATOM     18  C   UNL d   1       2.170   0.756  -1.206  0.00  0.00     0.045 C 
ATOM     19  C   UNL d   1       1.584   1.555  -2.348  0.00  0.00     0.004 C 
ATOM     20  C   UNL d   1       2.202   1.284  -3.728  0.00  0.00     0.160 C 
ATOM     21  O   UNL d   1       2.536  -0.106  -3.860  0.00  0.00    -0.339 OA
ATOM     22  C   UNL d   1       1.698   3.053  -2.078  0.00  0.00     0.019 C 
ATOM     23  C   UNL d   1      -0.139   1.738   2.128  0.00  0.00     0.025 C 
ENDROOT
BRANCH  20  24
ATOM     24  C   UNL d   1       3.375   2.188  -3.993  0.00  0.00     0.188 C 
ATOM     25  O   UNL d   1       3.218   3.218  -4.604  0.00  0.00    -0.292 OA
BRANCH  24  26
ATOM     26  C   UNL d   1       4.746   1.808  -3.497  0.00  0.00     0.245 C 
BRANCH  26  27
ATOM     27  O   UNL d   1       5.685   2.818  -3.870  0.00  0.00    -0.393 OA
ATOM     28  H   UNL d   1       6.591   2.639  -3.582  0.00  0.00     0.209 HD
ENDBRANCH  26  27
ENDBRANCH  24  26
ENDBRANCH  20  24
BRANCH   1  29
ATOM     29  C   UNL d   1       1.909  -1.969  -5.308  0.00  0.00     0.060 C 
BRANCH  29  30
ATOM     30  C   UNL d   1       1.522  -2.326  -6.744  0.00  0.00     0.000 C 
ATOM     31  C   UNL d   1       1.307  -3.837  -6.854  0.00  0.00     0.005 C 
ENDBRANCH  29  30
ENDBRANCH   1  29
BRANCH  17  32
ATOM     32  O   UNL d   1       1.908   0.201   1.090  0.00  0.00    -0.395 OA
ATOM     33  H   UNL d   1       2.849   0.352   1.254  0.00  0.00     0.210 HD
ENDBRANCH  17  32
TORSDOF 6
