REMARK  2 active torsions:
REMARK  status: ('A' for Active; 'I' for Inactive)
REMARK    1  A    between atoms: C_2  and  C_3 
REMARK    2  A    between atoms: C_3  and  N_6 
REMARK       I    between atoms: N_6  and  C_7 
REMARK       I    between atoms: C_7  and  N_12 
ROOT
ATOM      1  N   UNL d   1      -0.021   0.985  -0.006  0.00  0.00    -0.217 N 
ATOM      2  C   UNL d   1      -1.257   1.567   0.003  0.00  0.00     0.681 C 
ATOM      3  N   UNL d   1      -2.340   0.816   0.104  0.00  0.00    -0.127 N 
ATOM      4  HN  UNL d   1      -2.253  -0.197   0.176  1.00  0.00     0.197 HD
ATOM      5  C   UNL d   1      -3.566   1.394   0.113  0.00  0.00     0.196 C 
ATOM      6  N   UNL d   1      -4.593   1.877   0.120  0.00  0.00    -0.171 NA
ATOM      7  N   UNL d   1      -1.373   2.924  -0.093  0.00  0.00    -0.234 N 
ATOM      8  H   UNL d   1       0.060   0.018  -0.009  0.00  0.00     0.178 HD
ATOM      9  H   UNL d   1      -0.584   3.470  -0.240  0.00  0.00     0.174 HD
ATOM     10  H   UNL d   1      -2.244   3.343  -0.015  0.00  0.00     0.174 HD
ENDROOT
BRANCH   1  11
ATOM     11  C   UNL d   1       1.182   1.821  -0.017  0.00  0.00     0.039 C 
ATOM     12  C   UNL d   1       1.248   2.603  -1.330  0.00  0.00     0.038 C 
ATOM     13  C   UNL d   1       1.134   2.799   1.159  0.00  0.00     0.038 C 
BRANCH  11  14
ATOM     14  C   UNL d   1       2.422   0.932   0.109  0.00  0.00     0.026 C 
ATOM     15  C   UNL d   1       3.678   1.805   0.098  0.00  0.00     0.007 C 
ENDBRANCH  11  14
ENDBRANCH   1  11
TORSDOF 2
