REMARK  3 active torsions:
REMARK  status: ('A' for Active; 'I' for Inactive)
REMARK    1  A    between atoms: C_2  and  O_3 
REMARK    2  A    between atoms: O_3  and  C_4 
REMARK    3  A    between atoms: C_7  and  N_10 
REMARK       I    between atoms: N_10  and  C_11 
ROOT
ATOM      1  C   UNL d   1      -3.829   2.618   0.295  0.00  0.00     0.068 A 
ATOM      2  C   UNL d   1      -3.663   1.242   0.350  0.00  0.00     0.039 A 
ATOM      3  C   UNL d   1      -2.399   0.694   0.254  0.00  0.00     0.032 A 
ATOM      4  C   UNL d   1      -1.294   1.521   0.104  0.00  0.00     0.034 A 
ATOM      5  C   UNL d   1      -1.460   2.898   0.055  0.00  0.00     0.032 A 
ATOM      6  C   UNL d   1      -2.725   3.445   0.145  0.00  0.00     0.039 A 
ENDROOT
BRANCH   4   7
ATOM      7  N   UNL d   1      -0.011   0.966   0.007  0.00  0.00    -0.328 N 
ATOM      8  C   UNL d   1       0.925   1.561  -0.759  0.00  0.00     0.218 C 
ATOM      9  O   UNL d   1       0.631   2.523  -1.437  0.00  0.00    -0.274 OA
ATOM     10  C   UNL d   1       2.335   1.030  -0.773  0.00  0.00     0.117 C 
ATOM     11  H   UNL d   1       0.202   0.151   0.489  0.00  0.00     0.169 HD
ENDBRANCH   4   7
BRANCH   1  12
ATOM     12  O   UNL d   1      -5.074   3.157   0.390  0.00  0.00    -0.352 OA
BRANCH  12  13
ATOM     13  C   UNL d   1      -5.171   4.581   0.326  0.00  0.00     0.171 C 
ATOM     14  C   UNL d   1      -6.638   4.998   0.448  0.00  0.00     0.034 C 
ENDBRANCH  12  13
ENDBRANCH   1  12
TORSDOF 3
