REMARK  12 active torsions:
REMARK  status: ('A' for Active; 'I' for Inactive)
REMARK    1  A    between atoms: C_2  and  O_3 
REMARK    2  A    between atoms: C_2  and  O_7 
REMARK    3  A    between atoms: O_3  and  C_4 
REMARK    4  A    between atoms: O_7  and  C_8 
REMARK    5  A    between atoms: C_8  and  C_10 
REMARK    6  A    between atoms: C_11  and  C_32 
REMARK    7  A    between atoms: C_18  and  N_19 
REMARK       I    between atoms: N_19  and  C_20 
REMARK    8  A    between atoms: C_20  and  C_22 
REMARK    9  A    between atoms: C_22  and  C_27 
REMARK   10  A    between atoms: N_23  and  O_25 
REMARK   11  A    between atoms: C_32  and  O_33 
REMARK   12  A    between atoms: O_33  and  C_34 
REMARK       I    between atoms: C_34  and  N_36 
ROOT
ATOM      1  C   UNL d   1       7.854  -2.731  -3.447  0.00  0.00     0.119 C 
ATOM      2  C   UNL d   1       7.159  -3.758  -2.990  0.00  0.00    -0.013 C 
ATOM      3  C   UNL d   1       6.996  -4.215  -1.577  0.00  0.00     0.115 C 
ATOM      4  S   UNL d   1       8.302  -3.554  -0.497  0.00  0.00    -0.136 SA
ATOM      5  C   UNL d   1       8.425  -1.835  -1.083  0.00  0.00     0.187 C 
ATOM      6  N   UNL d   1       8.610  -1.928  -2.570  0.00  0.00    -0.294 N 
ATOM      7  C   UNL d   1       9.696  -1.143  -2.643  0.00  0.00     0.251 C 
ATOM      8  O   UNL d   1      10.306  -0.585  -3.531  0.00  0.00    -0.271 OA
ATOM      9  C   UNL d   1       9.830  -1.257  -1.141  0.00  0.00     0.211 C 
ENDROOT
BRANCH   9  10
ATOM     10  N   UNL d   1       9.950   0.040  -0.470  0.00  0.00    -0.339 N 
ATOM     11  C   UNL d   1      11.147   0.450  -0.006  0.00  0.00     0.273 C 
ATOM     12  O   UNL d   1      12.125  -0.258  -0.139  0.00  0.00    -0.266 OA
ATOM     13  H   UNL d   1       9.169   0.605  -0.364  0.00  0.00     0.163 HD
BRANCH  11  14
ATOM     14  C   UNL d   1      11.270   1.765   0.667  0.00  0.00     0.155 C 
ATOM     15  N   UNL d   1      10.220   2.526   0.810  0.00  0.00    -0.259 N 
ATOM     16  HN  UNL d   1       9.314   2.215   0.458  1.00  0.00     0.194 HD
BRANCH  15  17
ATOM     17  O   UNL d   1      10.337   3.782   1.452  0.00  0.00    -0.285 OA
ATOM     18  C   UNL d   1       9.109   4.507   1.539  0.00  0.00     0.237 C 
ENDBRANCH  15  17
BRANCH  14  19
ATOM     19  C   UNL d   1      12.578   2.214   1.175  0.00  0.00     0.109 A 
ATOM     20  O   UNL d   1      13.735   1.526   1.097  0.00  0.00    -0.320 OA
ATOM     21  C   UNL d   1      14.719   2.244   1.660  0.00  0.00     0.142 A 
ATOM     22  C   UNL d   1      14.202   3.404   2.116  0.00  0.00     0.027 A 
ATOM     23  C   UNL d   1      12.829   3.393   1.809  0.00  0.00     0.041 A 
ENDBRANCH  14  19
ENDBRANCH  11  14
ENDBRANCH   9  10
BRANCH   1  24
ATOM     24  C   UNL d   1       7.838  -2.421  -4.888  0.00  0.00     0.313 C 
ATOM     25  O   UNL d   1       8.490  -3.095  -5.662  0.00  0.00    -0.258 OA
BRANCH  24  26
ATOM     26  O   UNL d   1       7.101  -1.391  -5.348  0.00  0.00    -0.284 OA
BRANCH  26  27
ATOM     27  C   UNL d   1       6.970  -1.266  -6.789  0.00  0.00     0.275 C 
ATOM     28  C   UNL d   1       5.741  -0.415  -7.117  0.00  0.00     0.071 C 
BRANCH  27  29
ATOM     29  O   UNL d   1       8.158  -0.629  -7.329  0.00  0.00    -0.290 OA
BRANCH  29  30
ATOM     30  C   UNL d   1       9.176  -0.418  -6.481  0.00  0.00     0.257 C 
ATOM     31  O   UNL d   1       9.037  -0.647  -5.302  0.00  0.00    -0.266 OA
ATOM     32  C   UNL d   1      10.492   0.104  -6.997  0.00  0.00     0.126 C 
ENDBRANCH  29  30
ENDBRANCH  27  29
ENDBRANCH  26  27
ENDBRANCH  24  26
ENDBRANCH   1  24
BRANCH   2  33
ATOM     33  C   UNL d   1       6.437  -4.575  -4.030  0.00  0.00     0.218 C 
BRANCH  33  34
ATOM     34  O   UNL d   1       5.834  -3.688  -5.010  0.00  0.00    -0.300 OA
BRANCH  34  35
ATOM     35  C   UNL d   1       5.134  -4.263  -6.005  0.00  0.00     0.358 C 
ATOM     36  O   UNL d   1       5.025  -5.472  -6.053  0.00  0.00    -0.239 OA
ATOM     37  N   UNL d   1       4.553  -3.496  -6.950  0.00  0.00    -0.346 N 
ATOM     38  H   UNL d   1       4.637  -2.531  -6.911  0.00  0.00     0.161 HD
ATOM     39  H   UNL d   1       4.050  -3.910  -7.669  0.00  0.00     0.161 HD
ENDBRANCH  34  35
ENDBRANCH  33  34
ENDBRANCH   2  33
TORSDOF 12
