REMARK  4 active torsions:
REMARK  status: ('A' for Active; 'I' for Inactive)
REMARK    1  A    between atoms: C_3  and  C_16 
REMARK    2  A    between atoms: C_4  and  C_8 
REMARK       I    between atoms: C_16  and  N_18 
REMARK    3  A    between atoms: N_18  and  CA_19 
REMARK    4  A    between atoms: CA_24  and  C_29 
ROOT
ATOM      1  C   UNL d   1      -4.085   2.776   0.581  0.00  0.00     0.257 C 
ATOM      2  O   UNL d   1      -4.366   3.295  -0.483  0.00  0.00    -0.267 OA
ATOM      3  N   UNL d   1      -4.179   3.485   1.723  0.00  0.00    -0.342 N 
ATOM      4  H   UNL d   1      -3.955   3.071   2.571  0.00  0.00     0.163 HD
ENDROOT
BRANCH   1   5
ATOM      5  C   UNL d   1      -3.642   1.372   0.620  0.00  0.00     0.092 A 
ATOM      6  C   UNL d   1      -4.407   0.233   0.650  0.00  0.00     0.090 A 
ATOM      7  C   UNL d   1      -5.912   0.159   0.650  0.00  0.00     0.080 C 
ATOM      8  O   UNL d   1      -3.557  -0.796   0.681  0.00  0.00    -0.241 OA
ATOM      9  N   UNL d   1      -2.398  -0.461   0.668  0.00  0.00    -0.259 N 
ATOM     10  C   UNL d   1      -2.263   0.841   0.637  0.00  0.00     0.088 A 
ATOM     11  HN  UNL d   1      -1.616  -1.115   0.681  1.00  0.00     0.195 HD
BRANCH  10  12
ATOM     12  C   UNL d   1      -0.998   1.615   0.617  0.00  0.00     0.054 A 
ATOM     13  C   UNL d   1       0.013   1.329   1.534  0.00  0.00     0.049 A 
ATOM     14  C   UNL d   1       1.186   2.058   1.514  0.00  0.00     0.025 A 
ATOM     15 CL   UNL d   1      -0.206   0.065   2.704  0.00  0.00    -0.083 Cl
ATOM     16  C   UNL d   1       1.363   3.065   0.583  0.00  0.00     0.005 A 
ATOM     17  C   UNL d   1       0.367   3.351  -0.333  0.00  0.00     0.043 A 
ATOM     18  C   UNL d   1      -0.812   2.630  -0.324  0.00  0.00     0.130 A 
ATOM     19  F   UNL d   1      -1.785   2.910  -1.219  0.00  0.00    -0.205 F 
ENDBRANCH  10  12
ENDBRANCH   1   5
BRANCH   3  20
ATOM     20  CA  UNL d   1      -4.620   4.881   1.683  0.00  0.00     0.199 A 
ATOM     21  C   UNL d   1      -3.511   5.877   1.950  0.00  0.00     0.227 A 
ATOM     22  N   UNL d   1      -4.075   6.261   3.127  0.00  0.00    -0.219 NA
ATOM     23  O   UNL d   1      -2.510   6.204   1.349  0.00  0.00    -0.277 OA
ATOM     24  C   UNL d   1      -5.251   5.366   2.997  0.00  0.00     0.160 A 
ATOM     25  CA  UNL d   1      -3.306   6.103   4.361  0.00  0.00     0.186 C 
ATOM     26  S   UNL d   1      -5.021   4.172   4.380  0.00  0.00    -0.135 SA
ATOM     27  C   UNL d   1      -3.267   4.601   4.777  0.00  0.00     0.029 C 
ATOM     28  C   UNL d   1      -2.970   4.438   6.269  0.00  0.00     0.029 C 
ATOM     29  C   UNL d   1      -2.283   3.803   3.920  0.00  0.00     0.029 C 
BRANCH  25  30
ATOM     30  C   UNL d   1      -1.899   6.596   4.139  0.00  0.00     0.193 C 
ATOM     31  O   UNL d   1      -1.627   7.218   3.139  0.00  0.00    -0.647 OA
ATOM     32  OXT UNL d   1      -0.948   6.346   5.053  0.00  0.00    -0.647 OA
ENDBRANCH  25  30
ENDBRANCH   3  20
TORSDOF 4
