REMARK  3 active torsions:
REMARK  status: ('A' for Active; 'I' for Inactive)
REMARK    1  A    between atoms: C_8  and  C_9 
REMARK    2  A    between atoms: C_8  and  N_17 
REMARK    3  A    between atoms: C_9  and  N_10 
REMARK       I    between atoms: N_10  and  C_11 
REMARK       I    between atoms: C_11  and  N_12 
ROOT
ATOM      1  C   UNL d   1      -2.122  -0.764   0.007  0.00  0.00     0.255 C 
ENDROOT
BRANCH   1   2
ATOM      2  C   UNL d   1      -1.337   0.550   0.012  0.00  0.00     0.165 C 
BRANCH   2   3
ATOM      3  N   UNL d   1       0.099   0.260   0.003  0.00  0.00    -0.225 N 
ATOM      4  C   UNL d   1       1.008   1.292  -0.001  0.00  0.00     0.665 C 
ATOM      5  N   UNL d   1       0.569   2.595   0.011  0.00  0.00    -0.235 N 
ATOM      6  N   UNL d   1       2.292   0.964  -0.015  0.00  0.00    -0.235 N 
ATOM      7  H   UNL d   1      -0.382   2.786   0.021  0.00  0.00     0.174 HD
ATOM      8  H   UNL d   1       1.211   3.322   0.008  0.00  0.00     0.174 HD
ATOM      9  H   UNL d   1       3.005   1.694  -0.018  0.00  0.00     0.174 HD
ATOM     10  H   UNL d   1       2.569  -0.025  -0.023  0.00  0.00     0.174 HD
ATOM     11  H   UNL d   1       0.409  -0.659  -0.005  0.00  0.00     0.177 HD
ENDBRANCH   2   3
ENDBRANCH   1   2
BRANCH   1  12
ATOM     12  N   UNL d   1      -3.568  -0.463   0.043  0.00  0.00    -0.070 N 
ATOM     13  C   UNL d   1      -4.346  -1.693  -0.227  0.00  0.00     0.235 C 
ATOM     14  C   UNL d   1      -5.311  -1.916   0.942  0.00  0.00     0.028 C 
ATOM     15  C   UNL d   1      -6.478  -0.935   0.831  0.00  0.00     0.002 C 
ATOM     16  C   UNL d   1      -6.020   0.457   1.267  0.00  0.00     0.000 C 
ATOM     17  C   UNL d   1      -6.024   1.395   0.057  0.00  0.00     0.002 C 
ATOM     18  C   UNL d   1      -5.409   0.660  -1.139  0.00  0.00     0.028 C 
ATOM     19  C   UNL d   1      -3.894   0.574  -0.958  0.00  0.00     0.235 C 
ATOM     20  H   UNL d   1      -3.813  -0.113   0.977  0.00  0.00     0.279 HD
ENDBRANCH   1  12
TORSDOF 3
