REMARK  2 active torsions:
REMARK  status: ('A' for Active; 'I' for Inactive)
REMARK    1  A    between atoms: C_10  and  O_11 
REMARK    2  A    between atoms: C_18  and  O_21 
ROOT
ATOM      1  C   UNL d   1      -4.044   6.511   1.318  0.00  0.00     0.018 C 
ATOM      2  C   UNL d   1      -2.715   5.757   1.250  0.00  0.00    -0.014 C 
ATOM      3  C   UNL d   1      -2.549   4.971   2.531  0.00  0.00     0.012 C 
ATOM      4  C   UNL d   1      -1.284   4.112   2.473  0.00  0.00     0.007 C 
ATOM      5  C   UNL d   1      -1.435   3.131   1.303  0.00  0.00     0.001 C 
ATOM      6  C   UNL d   1      -1.508   3.917   0.004  0.00  0.00    -0.005 C 
ATOM      7  C   UNL d   1      -2.710   4.866  -0.005  0.00  0.00     0.001 C 
ATOM      8  C   UNL d   1      -2.450   5.898  -1.142  0.00  0.00     0.008 C 
ATOM      9  C   UNL d   1      -1.410   6.864  -0.533  0.00  0.00     0.033 C 
ATOM     10  C   UNL d   1      -1.573   6.774   0.998  0.00  0.00     0.126 C 
ATOM     11  C   UNL d   1      -1.644   2.938  -1.167  0.00  0.00     0.008 C 
ATOM     12  C   UNL d   1      -0.351   2.141  -1.295  0.00  0.00     0.042 C 
ATOM     13  C   UNL d   1      -0.017   1.425   0.010  0.00  0.00     0.098 A 
ATOM     14  C   UNL d   1      -0.313   2.127   1.323  0.00  0.00    -0.005 C 
ATOM     15  C   UNL d   1       0.979   2.723   1.886  0.00  0.00     0.034 C 
ATOM     16  C   UNL d   1       1.942   1.593   2.170  0.00  0.00     0.125 C 
ATOM     17  C   UNL d   1       2.085   0.598   1.276  0.00  0.00     0.167 C 
ATOM     18  C   UNL d   1       1.293   0.605  -0.007  0.00  0.00     0.188 A 
ATOM     19  O   UNL d   1       0.002  -0.004   0.002  0.00  0.00    -0.366 OA
ATOM     20  C   UNL d   1       2.699   1.583   3.385  0.00  0.00     0.066 C 
ATOM     21  N   UNL d   1       3.300   1.574   4.349  0.00  0.00    -0.197 NA
ATOM     22  C   UNL d   1      -0.745   1.037   2.307  0.00  0.00     0.019 C 
ENDROOT
BRANCH  17  23
ATOM     23  O   UNL d   1       2.943  -0.413   1.530  0.00  0.00    -0.392 OA
ATOM     24  HO  UNL d   1       3.044  -1.116   0.899  1.00  0.00     0.210 HD
ENDBRANCH  17  23
BRANCH  10  25
ATOM     25  O   UNL d   1      -0.361   6.308   1.595  0.00  0.00    -0.395 OA
ATOM     26  H   UNL d   1       0.399   6.887   1.447  0.00  0.00     0.210 HD
ENDBRANCH  10  25
TORSDOF 2
