REMARK  3 active torsions:
REMARK  status: ('A' for Active; 'I' for Inactive)
REMARK    1  A    between atoms: C_5  and  C_10 
REMARK    2  A    between atoms: C_10  and  O_12 
REMARK    3  A    between atoms: O_12  and  C_13 
ROOT
ATOM      1  C   UNL d   1       2.445  -4.318  -0.525  0.00  0.00     0.140 C 
ATOM      2  C   UNL d   1       2.292  -4.744   0.947  0.00  0.00     0.034 C 
ATOM      3  C   UNL d   1       3.683  -5.230   1.413  0.00  0.00     0.008 C 
ATOM      4  C   UNL d   1       4.650  -4.527   0.443  0.00  0.00     0.001 C 
ATOM      5  C   UNL d   1       3.921  -4.608  -0.910  0.00  0.00    -0.013 C 
ATOM      6  C   UNL d   1       3.950  -6.022  -1.494  0.00  0.00     0.012 C 
ATOM      7  C   UNL d   1       5.376  -6.563  -1.532  0.00  0.00     0.006 C 
ATOM      8  C   UNL d   1       5.916  -6.614  -0.100  0.00  0.00    -0.002 C 
ATOM      9  C   UNL d   1       6.014  -5.183   0.425  0.00  0.00    -0.005 C 
ATOM     10  C   UNL d   1       6.955  -4.386  -0.485  0.00  0.00     0.010 C 
ATOM     11  C   UNL d   1       8.362  -4.956  -0.399  0.00  0.00     0.035 C 
ATOM     12  C   UNL d   1       8.300  -6.427  -0.767  0.00  0.00    -0.072 C 
ATOM     13  C   UNL d   1       9.169  -6.881  -1.669  0.00  0.00     0.053 C 
ATOM     14  C   UNL d   1       9.174  -8.301  -2.035  0.00  0.00     0.149 C 
ATOM     15  O   UNL d   1       9.664  -8.691  -3.074  0.00  0.00    -0.293 OA
ATOM     16  C   UNL d   1       8.537  -9.258  -1.046  0.00  0.00     0.084 C 
ATOM     17  C   UNL d   1       7.168  -8.687  -0.675  0.00  0.00     0.017 C 
ATOM     18  C   UNL d   1       7.285  -7.292  -0.086  0.00  0.00     0.019 C 
ATOM     19  C   UNL d   1       4.461  -3.578  -1.905  0.00  0.00     0.018 C 
ENDROOT
BRANCH   1  20
ATOM     20  O   UNL d   1       2.162  -2.901  -0.666  0.00  0.00    -0.314 OA
BRANCH  20  21
ATOM     21  C   UNL d   1       0.903  -2.559  -0.982  0.00  0.00     0.271 C 
ATOM     22  O   UNL d   1       0.065  -3.416  -1.136  0.00  0.00    -0.264 OA
BRANCH  21  23
ATOM     23  C   UNL d   1       0.534  -1.107  -1.145  0.00  0.00     0.065 C 
ATOM     24  C   UNL d   1      -0.950  -0.960  -1.505  0.00  0.00     0.025 C 
ATOM     25  C   UNL d   1      -1.281   0.519  -1.718  0.00  0.00     0.014 C 
ATOM     26  C   UNL d   1      -0.018   1.364  -1.502  0.00  0.00    -0.026 C 
ATOM     27  C   UNL d   1      -0.305   2.844  -1.762  0.00  0.00     0.019 C 
ATOM     28  C   UNL d   1       0.465   1.149  -0.061  0.00  0.00     0.014 C 
ATOM     29  C   UNL d   1       1.061   0.837  -2.435  0.00  0.00    -0.020 C 
ATOM     30  C   UNL d   1       0.796  -0.330   0.152  0.00  0.00     0.025 C 
ATOM     31  C   UNL d   1       1.349  -0.450  -2.249  0.00  0.00    -0.010 C 
ENDBRANCH  21  23
ENDBRANCH  20  21
ENDBRANCH   1  20
TORSDOF 3
