REMARK  4 active torsions:
REMARK  status: ('A' for Active; 'I' for Inactive)
REMARK    1  A    between atoms: C_2  and  C_3 
REMARK    2  A    between atoms: C_2  and  C_16 
REMARK    3  A    between atoms: C_7  and  O_9 
REMARK    4  A    between atoms: O_9  and  C_10 
ROOT
ATOM      1  C   UNL d   1      -0.783   1.520   1.189  0.00  0.00    -0.042 A 
ATOM      2  C   UNL d   1      -0.866   2.880   1.424  0.00  0.00     0.008 A 
ATOM      3  C   UNL d   1      -1.451   3.349   2.586  0.00  0.00     0.003 A 
ATOM      4  C   UNL d   1      -1.956   2.459   3.514  0.00  0.00     0.037 A 
ATOM      5  C   UNL d   1      -1.874   1.094   3.281  0.00  0.00     0.076 A 
ATOM      6  C   UNL d   1      -1.291   0.626   2.112  0.00  0.00     0.045 A 
ENDROOT
BRANCH   5   7
ATOM      7  O   UNL d   1      -2.370   0.217   4.193  0.00  0.00    -0.311 OA
BRANCH   7   8
ATOM      8  C   UNL d   1      -1.490  -0.575   4.860  0.00  0.00     0.076 A 
ATOM      9  C   UNL d   1      -0.125  -0.387   4.697  0.00  0.00     0.037 A 
ATOM     10  C   UNL d   1       0.768  -1.193   5.378  0.00  0.00     0.003 A 
ATOM     11  C   UNL d   1       0.302  -2.185   6.221  0.00  0.00     0.000 A 
ATOM     12  C   UNL d   1      -1.058  -2.374   6.385  0.00  0.00     0.003 A 
ATOM     13  C   UNL d   1      -1.955  -1.568   5.711  0.00  0.00     0.037 A 
ENDBRANCH   7   8
ENDBRANCH   5   7
BRANCH   1  14
ATOM     14  C   UNL d   1      -0.145   1.012  -0.078  0.00  0.00     0.115 C 
ATOM     15  C   UNL d   1      -0.913   1.551  -1.287  0.00  0.00     0.026 C 
BRANCH  14  16
ATOM     16  C   UNL d   1       1.286   1.480  -0.143  0.00  0.00     0.181 C 
ATOM     17  O   UNL d   1       1.741   2.157   0.749  0.00  0.00    -0.647 OA
ATOM     18  O   UNL d   1       2.055   1.146  -1.191  0.00  0.00    -0.647 OA
ENDBRANCH  14  16
ENDBRANCH   1  14
TORSDOF 4
