REMARK  7 active torsions:
REMARK  status: ('A' for Active; 'I' for Inactive)
REMARK    1  A    between atoms: C_1  and  C_2 
REMARK    2  A    between atoms: C_1  and  O_12 
REMARK    3  A    between atoms: C_3  and  O_11 
REMARK    4  A    between atoms: C_4  and  O_10 
REMARK    5  A    between atoms: C_5  and  C_7 
REMARK    6  A    between atoms: C_5  and  O_9 
REMARK    7  A    between atoms: C_7  and  O_8 
ROOT
ATOM      1  C   UNL d   1      -0.729   1.579   1.267  0.00  0.00     0.180 C 
ATOM      2  C   UNL d   1      -0.049   1.008   2.531  0.00  0.00     0.183 C 
ATOM      3  C   UNL d   1      -0.126   2.167   3.552  0.00  0.00     0.213 C 
ATOM      4  C   UNL d   1      -0.845   3.298   2.784  0.00  0.00     0.213 C 
ATOM      5  O   UNL d   1      -0.599   3.012   1.390  0.00  0.00    -0.341 OA
ENDROOT
BRANCH   4   6
ATOM      6  C   UNL d   1      -0.257   4.659   3.161  0.00  0.00     0.235 C 
BRANCH   6   7
ATOM      7  O   UNL d   1      -0.887   5.681   2.387  0.00  0.00    -0.395 OA
ATOM      8  H   UNL d   1      -0.563   6.573   2.574  0.00  0.00     0.209 HD
ENDBRANCH   6   7
ENDBRANCH   4   6
BRANCH   4   9
ATOM      9  O   UNL d   1      -2.248   3.271   3.057  0.00  0.00    -0.362 OA
ATOM     10  H   UNL d   1      -2.757   3.928   2.564  0.00  0.00     0.213 HD
ENDBRANCH   4   9
BRANCH   3  11
ATOM     11  O   UNL d   1      -0.886   1.777   4.698  0.00  0.00    -0.387 OA
ATOM     12  H   UNL d   1      -0.480   1.069   5.217  0.00  0.00     0.210 HD
ENDBRANCH   3  11
BRANCH   2  13
ATOM     13  O   UNL d   1       1.312   0.671   2.258  0.00  0.00    -0.390 OA
ATOM     14  H   UNL d   1       1.421  -0.008   1.579  0.00  0.00     0.210 HD
ENDBRANCH   2  13
BRANCH   1  15
ATOM     15  C   UNL d   1      -0.013   1.086   0.008  0.00  0.00     0.198 C 
BRANCH  15  16
ATOM     16  O   UNL d   1      -0.704   1.559  -1.150  0.00  0.00    -0.398 OA
ATOM     17  H   UNL d   1      -0.304   1.284  -1.986  0.00  0.00     0.209 HD
ENDBRANCH  15  16
ENDBRANCH   1  15
TORSDOF 7
