REMARK  2 active torsions:
REMARK  status: ('A' for Active; 'I' for Inactive)
REMARK    1  A    between atoms: C_2  and  C_3 
REMARK    2  A    between atoms: C_3  and  C_12 
ROOT
ATOM      1  C   UNL d   1       1.585   3.504  -0.387  0.00  0.00     0.145 A 
ATOM      2  C   UNL d   1       0.957   4.373   0.686  0.00  0.00     0.248 A 
ATOM      3  O   UNL d   1       1.310   4.297   1.844  0.00  0.00    -0.271 OA
ATOM      4  N   UNL d   1      -0.011   5.234   0.305  0.00  0.00    -0.278 N 
ATOM      5  C   UNL d   1      -0.411   5.331  -0.968  0.00  0.00     0.329 A 
ATOM      6  O   UNL d   1      -1.288   6.133  -1.223  0.00  0.00    -0.247 OA
ATOM      7  N   UNL d   1       0.083   4.609  -1.980  0.00  0.00    -0.278 N 
ATOM      8  C   UNL d   1       1.057   3.693  -1.797  0.00  0.00     0.248 A 
ATOM      9  O   UNL d   1       1.495   3.047  -2.724  0.00  0.00    -0.271 OA
ATOM     10  H   UNL d   1      -0.427   5.800   0.974  0.00  0.00     0.173 HD
ATOM     11  H   UNL d   1      -0.271   4.748  -2.873  0.00  0.00     0.173 HD
ENDROOT
BRANCH   1  12
ATOM     12  C   UNL d   1       3.089   3.784  -0.400  0.00  0.00     0.029 C 
ATOM     13  C   UNL d   1       3.333   5.244  -0.790  0.00  0.00     0.007 C 
ENDBRANCH   1  12
BRANCH   1  14
ATOM     14  C   UNL d   1       1.383   2.062  -0.000  0.00  0.00    -0.057 C 
ATOM     15  C   UNL d   1      -0.019   1.526   0.010  0.00  0.00     0.036 C 
ATOM     16  C   UNL d   1       0.002  -0.004   0.002  0.00  0.00     0.005 C 
ATOM     17  C   UNL d   1       0.965  -0.482   1.096  0.00  0.00     0.004 C 
ATOM     18  C   UNL d   1       2.388  -0.085   0.695  0.00  0.00     0.027 C 
ATOM     19  C   UNL d   1       2.429   1.362   0.302  0.00  0.00    -0.022 C 
ENDBRANCH   1  14
TORSDOF 2
