REMARK  1 active torsions:
REMARK  status: ('A' for Active; 'I' for Inactive)
REMARK    1  A    between atoms: C_3  and  C_12 
ROOT
ATOM      1  C   UNL d   1       0.211   1.272   0.460  0.00  0.00     0.034 C 
ATOM      2  C   UNL d   1       0.041  -0.231   0.234  0.00  0.00     0.084 C 
ATOM      3  C   UNL d   1      -1.435  -0.597  -0.109  0.00  0.00     0.191 C 
ATOM      4  N   UNL d   1      -1.728  -0.258  -1.501  0.00  0.00    -0.218 NA
ATOM      5  C   UNL d   1      -0.615  -0.442  -2.451  0.00  0.00     0.198 A 
ATOM      6  S   UNL d   1       0.827  -0.776  -1.349  0.00  0.00     0.172 S 
ATOM      7  O   UNL d   1       1.887   0.111  -1.678  0.00  0.00    -0.225 OA
ATOM      8  O   UNL d   1       1.067  -2.176  -1.299  0.00  0.00    -0.225 OA
ATOM      9  C   UNL d   1      -0.716   1.023  -2.871  0.00  0.00     0.132 A 
ATOM     10  C   UNL d   1      -1.843   1.031  -1.873  0.00  0.00     0.204 A 
ATOM     11  O   UNL d   1      -2.602   1.908  -1.520  0.00  0.00    -0.280 OA
ATOM     12  C   UNL d   1       0.559  -1.037   1.427  0.00  0.00     0.034 C 
ENDROOT
BRANCH   3  13
ATOM     13  C   UNL d   1      -2.363   0.169   0.797  0.00  0.00     0.193 C 
ATOM     14  O   UNL d   1      -3.265   0.821   0.327  0.00  0.00    -0.647 OA
ATOM     15  O   UNL d   1      -2.188   0.128   2.127  0.00  0.00    -0.647 OA
ENDBRANCH   3  13
TORSDOF 1
