REMARK  15 active torsions:
REMARK  status: ('A' for Active; 'I' for Inactive)
REMARK    1  A    between atoms: C_3  and  C_8 
REMARK    2  A    between atoms: C_8  and  O_10 
REMARK    3  A    between atoms: O_10  and  C_11 
REMARK    4  A    between atoms: C_11  and  C_12 
REMARK    5  A    between atoms: C_13  and  O_39 
REMARK    6  A    between atoms: C_14  and  O_29 
REMARK    7  A    between atoms: C_15  and  C_17 
REMARK    8  A    between atoms: C_15  and  O_28 
REMARK    9  A    between atoms: C_17  and  O_18 
REMARK   10  A    between atoms: O_18  and  C_19 
REMARK   11  A    between atoms: C_19  and  C_21 
REMARK   12  A    between atoms: O_29  and  C_30 
REMARK   13  A    between atoms: C_30  and  C_32 
REMARK   14  A    between atoms: O_39  and  C_40 
REMARK   15  A    between atoms: C_40  and  C_42 
ROOT
ATOM      1  C   UNL d   1       1.398  -0.360  -0.546  0.00  0.00     0.182 C 
ATOM      2  C   UNL d   1       0.002  -0.004   0.002  0.00  0.00     0.198 C 
ATOM      3  C   UNL d   1      -0.019   1.544   0.011  0.00  0.00     0.228 C 
ATOM      4  C   UNL d   1       1.492   1.889  -0.002  0.00  0.00     0.214 C 
ATOM      5  O   UNL d   1       2.062   0.876  -0.858  0.00  0.00    -0.341 OA
ENDROOT
BRANCH   4   6
ATOM      6  C   UNL d   1       1.721   3.283  -0.590  0.00  0.00     0.250 C 
BRANCH   6   7
ATOM      7  O   UNL d   1       3.143   3.580  -0.590  0.00  0.00    -0.312 OA
BRANCH   7   8
ATOM      8  C   UNL d   1       3.517   4.779  -1.079  0.00  0.00     0.294 C 
ATOM      9  O   UNL d   1       2.678   5.553  -1.495  0.00  0.00    -0.259 OA
BRANCH   8  10
ATOM     10  C   UNL d   1       4.946   5.150  -1.111  0.00  0.00     0.054 A 
ATOM     11  C   UNL d   1       5.918   4.271  -0.631  0.00  0.00     0.105 A 
ATOM     12  N   UNL d   1       7.193   4.600  -0.664  0.00  0.00    -0.374 N 
ATOM     13  C   UNL d   1       7.601   5.763  -1.136  0.00  0.00     0.087 A 
ATOM     14  HN  UNL d   1       7.885   3.937  -0.316  1.00  0.00     0.164 HD
ATOM     15  C   UNL d   1       6.699   6.692  -1.624  0.00  0.00     0.018 A 
ATOM     16  C   UNL d   1       5.348   6.393  -1.617  0.00  0.00     0.020 A 
ENDBRANCH   8  10
ENDBRANCH   7   8
ENDBRANCH   6   7
ENDBRANCH   4   6
BRANCH   4  17
ATOM     17  O   UNL d   1       2.039   1.801   1.315  0.00  0.00    -0.362 OA
ATOM     18  H   UNL d   1       2.983   2.007   1.364  0.00  0.00     0.213 HD
ENDBRANCH   4  17
BRANCH   3  19
ATOM     19  O   UNL d   1      -0.678   2.060  -1.176  0.00  0.00    -0.304 OA
BRANCH  19  20
ATOM     20  C   UNL d   1      -1.317   3.240  -1.056  0.00  0.00     0.295 C 
ATOM     21  O   UNL d   1      -1.323   3.822   0.010  0.00  0.00    -0.259 OA
BRANCH  20  22
ATOM     22  C   UNL d   1      -2.010   3.826  -2.222  0.00  0.00     0.054 A 
ATOM     23  C   UNL d   1      -2.010   3.167  -3.452  0.00  0.00     0.105 A 
ATOM     24  N   UNL d   1      -2.628   3.689  -4.491  0.00  0.00    -0.374 N 
ATOM     25  C   UNL d   1      -3.265   4.843  -4.416  0.00  0.00     0.087 A 
ATOM     26  HN  UNL d   1      -2.614   3.188  -5.380  1.00  0.00     0.164 HD
ATOM     27  C   UNL d   1      -3.311   5.558  -3.232  0.00  0.00     0.018 A 
ATOM     28  C   UNL d   1      -2.682   5.049  -2.110  0.00  0.00     0.020 A 
ENDBRANCH  20  22
ENDBRANCH  19  20
ENDBRANCH   3  19
BRANCH   2  29
ATOM     29  O   UNL d   1      -1.034  -0.522  -0.873  0.00  0.00    -0.306 OA
BRANCH  29  30
ATOM     30  C   UNL d   1      -1.564  -1.718  -0.553  0.00  0.00     0.295 C 
ATOM     31  O   UNL d   1      -1.170  -2.313   0.430  0.00  0.00    -0.259 OA
BRANCH  30  32
ATOM     32  C   UNL d   1      -2.623  -2.307  -1.398  0.00  0.00     0.054 A 
ATOM     33  C   UNL d   1      -3.088  -1.631  -2.527  0.00  0.00     0.105 A 
ATOM     34  N   UNL d   1      -4.028  -2.159  -3.284  0.00  0.00    -0.374 N 
ATOM     35  C   UNL d   1      -4.572  -3.328  -3.005  0.00  0.00     0.087 A 
ATOM     36  HN  UNL d   1      -4.345  -1.648  -4.108  1.00  0.00     0.164 HD
ATOM     37  C   UNL d   1      -4.170  -4.058  -1.901  0.00  0.00     0.018 A 
ATOM     38  C   UNL d   1      -3.181  -3.551  -1.077  0.00  0.00     0.020 A 
ENDBRANCH  30  32
ENDBRANCH  29  30
ENDBRANCH   2  29
BRANCH   1  39
ATOM     39  C   UNL d   1       1.259  -1.210  -1.810  0.00  0.00     0.213 C 
BRANCH  39  40
ATOM     40  O   UNL d   1       2.574  -1.639  -2.252  0.00  0.00    -0.315 OA
BRANCH  40  41
ATOM     41  C   UNL d   1       2.629  -2.402  -3.360  0.00  0.00     0.294 C 
ATOM     42  O   UNL d   1       1.605  -2.701  -3.943  0.00  0.00    -0.259 OA
BRANCH  41  43
ATOM     43  C   UNL d   1       3.933  -2.875  -3.868  0.00  0.00     0.054 A 
ATOM     44  C   UNL d   1       4.003  -3.669  -5.020  0.00  0.00     0.020 A 
ATOM     45  C   UNL d   1       5.249  -4.086  -5.454  0.00  0.00     0.018 A 
ATOM     46  C   UNL d   1       6.374  -3.709  -4.744  0.00  0.00     0.087 A 
ATOM     47  N   UNL d   1       6.278  -2.961  -3.661  0.00  0.00    -0.374 N 
ATOM     48  C   UNL d   1       5.116  -2.534  -3.212  0.00  0.00     0.105 A 
ATOM     49  HN  UNL d   1       7.128  -2.705  -3.158  1.00  0.00     0.164 HD
ENDBRANCH  41  43
ENDBRANCH  40  41
ENDBRANCH  39  40
ENDBRANCH   1  39
TORSDOF 15
