REMARK  5 active torsions:
REMARK  status: ('A' for Active; 'I' for Inactive)
REMARK    1  A    between atoms: C_2  and  N_15 
REMARK    2  A    between atoms: C_3  and  N_15 
REMARK    3  A    between atoms: C_5  and  C_7 
REMARK    4  A    between atoms: C_5  and  N_15 
REMARK    5  A    between atoms: C_7  and  C_9 
ROOT
ATOM      1  C   UNL d   1      -3.996   1.652  -0.402  0.00  0.00     0.258 C 
ATOM      2  C   UNL d   1      -4.635   2.314  -1.625  0.00  0.00     0.049 C 
ENDROOT
BRANCH   1   3
ATOM      3  C   UNL d   1      -2.850   0.779  -0.845  0.00  0.00     0.190 C 
ATOM      4  O   UNL d   1      -3.004  -0.419  -0.945  0.00  0.00    -0.290 OA
BRANCH   3   5
ATOM      5  C   UNL d   1      -1.544   1.382  -1.156  0.00  0.00     0.012 A 
ATOM      6  C   UNL d   1      -1.361   2.763  -1.038  0.00  0.00     0.015 A 
ATOM      7  C   UNL d   1      -0.135   3.320  -1.336  0.00  0.00     0.001 A 
ATOM      8  C   UNL d   1       0.913   2.516  -1.746  0.00  0.00     0.000 A 
ATOM      9  C   UNL d   1       0.741   1.147  -1.861  0.00  0.00     0.001 A 
ATOM     10  C   UNL d   1      -0.478   0.575  -1.567  0.00  0.00     0.015 A 
ENDBRANCH   3   5
ENDBRANCH   1   3
BRANCH   1  11
ATOM     11  N   UNL d   1      -5.008   0.812   0.271  0.00  0.00    -0.061 N 
ATOM     12  H   UNL d   1      -5.364   0.118  -0.397  0.00  0.00     0.280 HD
BRANCH  11  13
ATOM     13  C   UNL d   1      -4.397   0.105   1.417  0.00  0.00     0.231 C 
ATOM     14  C   UNL d   1      -3.773   1.105   2.393  0.00  0.00     0.034 C 
ENDBRANCH  11  13
BRANCH  11  15
ATOM     15  C   UNL d   1      -6.133   1.650   0.737  0.00  0.00     0.231 C 
ATOM     16  C   UNL d   1      -7.274   0.737   1.190  0.00  0.00     0.034 C 
ENDBRANCH  11  15
ENDBRANCH   1  11
TORSDOF 5
