REMARK  9 active torsions:
REMARK  status: ('A' for Active; 'I' for Inactive)
REMARK    1  A    between atoms: C_12  and  O_36 
REMARK    2  A    between atoms: C_15  and  C_34 
REMARK    3  A    between atoms: C_16  and  O_33 
REMARK    4  A    between atoms: C_18  and  O_32 
REMARK    5  A    between atoms: C_21  and  O_31 
REMARK    6  A    between atoms: O_36  and  C_37 
REMARK    7  A    between atoms: C_38  and  O_45 
REMARK    8  A    between atoms: C_39  and  N_54 
REMARK    9  A    between atoms: C_40  and  O_44 
ROOT
ATOM      1  C   UNL d   1      -3.832   2.081  -1.843  0.00  0.00     0.040 C 
ATOM      2  C   UNL d   1      -4.071   2.465  -0.382  0.00  0.00     0.131 C 
ATOM      3  C   UNL d   1      -4.160   3.990  -0.265  0.00  0.00     0.059 C 
ATOM      4  C   UNL d   1      -5.285   4.338   0.671  0.00  0.00    -0.024 C 
ATOM      5  C   UNL d   1      -5.205   5.403   1.472  0.00  0.00    -0.004 C 
ATOM      6  C   UNL d   1      -6.312   5.635   2.417  0.00  0.00    -0.000 C 
ATOM      7  C   UNL d   1      -5.987   6.071   3.647  0.00  0.00     0.000 C 
ATOM      8  C   UNL d   1      -6.605   5.553   4.801  0.00  0.00     0.000 C 
ATOM      9  C   UNL d   1      -5.878   5.442   5.933  0.00  0.00    -0.000 C 
ATOM     10  C   UNL d   1      -6.375   4.723   7.105  0.00  0.00    -0.002 C 
ATOM     11  C   UNL d   1      -5.498   4.400   8.059  0.00  0.00     0.005 C 
ATOM     12  C   UNL d   1      -5.883   3.505   9.206  0.00  0.00     0.150 C 
ATOM     13  C   UNL d   1      -4.616   2.910   9.826  0.00  0.00     0.069 C 
ATOM     14  C   UNL d   1      -4.564   1.401   9.578  0.00  0.00     0.144 C 
ATOM     15  C   UNL d   1      -4.519   0.668  10.921  0.00  0.00     0.144 C 
ATOM     16  C   UNL d   1      -3.123   0.079  11.135  0.00  0.00     0.140 C 
ATOM     17  C   UNL d   1      -2.821  -0.933  10.028  0.00  0.00     0.101 C 
ATOM     18  C   UNL d   1      -3.163  -0.318   8.669  0.00  0.00     0.166 C 
ATOM     19  O   UNL d   1      -3.392   1.084   8.824  0.00  0.00    -0.349 OA
ATOM     20  C   UNL d   1      -1.995  -0.538   7.703  0.00  0.00     0.100 C 
ATOM     21  C   UNL d   1      -2.328  -1.695   6.758  0.00  0.00     0.125 C 
ATOM     22  C   UNL d   1      -2.305  -1.196   5.311  0.00  0.00     0.067 C 
ATOM     23  C   UNL d   1      -1.124  -1.831   4.571  0.00  0.00     0.157 A 
ATOM     24  C   UNL d   1      -1.099  -1.737   3.044  0.00  0.00     0.174 A 
ATOM     25  O   UNL d   1      -1.384  -2.958   3.738  0.00  0.00    -0.371 OA
ATOM     26  C   UNL d   1      -2.237  -1.044   2.350  0.00  0.00     0.013 C 
ATOM     27  C   UNL d   1      -2.042   0.124   1.739  0.00  0.00     0.081 C 
ATOM     28  C   UNL d   1      -3.156   0.777   1.037  0.00  0.00     0.283 C 
ATOM     29  O   UNL d   1      -4.246   0.240   1.002  0.00  0.00    -0.260 OA
ATOM     30  O   UNL d   1      -2.977   1.968   0.432  0.00  0.00    -0.313 OA
ENDROOT
BRANCH  12  31
ATOM     31  O   UNL d   1      -6.722   2.451   8.730  0.00  0.00    -0.349 OA
BRANCH  31  32
ATOM     32  C   UNL d   1      -7.966   2.341   9.424  0.00  0.00     0.291 C 
ATOM     33  O   UNL d   1      -8.803   3.448   9.082  0.00  0.00    -0.351 OA
ATOM     34  C   UNL d   1     -10.069   3.449   9.744  0.00  0.00     0.151 C 
ATOM     35  C   UNL d   1     -10.847   2.188   9.357  0.00  0.00     0.179 C 
ATOM     36  C   UNL d   1     -10.863   4.688   9.325  0.00  0.00     0.042 C 
ATOM     37  C   UNL d   1     -10.019   0.953   9.725  0.00  0.00     0.247 C 
ATOM     38  C   UNL d   1      -8.660   1.036   9.024  0.00  0.00     0.206 C 
BRANCH  35  39
ATOM     39  O   UNL d   1     -11.097   2.194   7.950  0.00  0.00    -0.391 OA
ATOM     40  H   UNL d   1     -11.618   2.950   7.646  0.00  0.00     0.210 HD
ENDBRANCH  35  39
BRANCH  37  41
ATOM     41  N   UNL d   1     -10.726  -0.255   9.264  0.00  0.00    -0.070 N 
ATOM     42  H   UNL d   1     -10.194  -1.087   9.514  0.00  0.00     0.274 HD
ATOM     43  H   UNL d   1     -11.650  -0.302   9.688  0.00  0.00     0.274 HD
ATOM     44  H   UNL d   1     -10.827  -0.217   8.243  0.00  0.00     0.274 HD
ENDBRANCH  37  41
BRANCH  38  45
ATOM     45  O   UNL d   1      -8.850   1.010   7.607  0.00  0.00    -0.388 OA
ATOM     46  H   UNL d   1      -8.028   1.064   7.100  0.00  0.00     0.210 HD
ENDBRANCH  38  45
ENDBRANCH  31  32
ENDBRANCH  12  31
BRANCH  15  47
ATOM     47  C   UNL d   1      -4.831   1.636  12.033  0.00  0.00     0.182 C 
ATOM     48  O   UNL d   1      -3.933   2.147  12.659  0.00  0.00    -0.648 OA
ATOM     49  O   UNL d   1      -6.107   1.931  12.327  0.00  0.00    -0.648 OA
ENDBRANCH  15  47
BRANCH  18  50
ATOM     50  O   UNL d   1      -4.337  -0.943   8.146  0.00  0.00    -0.365 OA
ATOM     51  H   UNL d   1      -4.612  -0.603   7.283  0.00  0.00     0.213 HD
ENDBRANCH  18  50
BRANCH  16  52
ATOM     52  O   UNL d   1      -2.153   1.128  11.099  0.00  0.00    -0.394 OA
ATOM     53  H   UNL d   1      -1.243   0.827  11.228  0.00  0.00     0.210 HD
ENDBRANCH  16  52
BRANCH  21  54
ATOM     54  O   UNL d   1      -1.360  -2.734   6.919  0.00  0.00    -0.395 OA
ATOM     55  H   UNL d   1      -1.510  -3.502   6.350  0.00  0.00     0.210 HD
ENDBRANCH  21  54
TORSDOF 9
