REMARK  15 active torsions:
REMARK  status: ('A' for Active; 'I' for Inactive)
REMARK    1  A    between atoms: C_3  and  C_8 
REMARK    2  A    between atoms: C_8  and  O_10 
REMARK    3  A    between atoms: O_10  and  C_11 
REMARK    4  A    between atoms: C_11  and  C_12 
REMARK    5  A    between atoms: C_13  and  O_39 
REMARK    6  A    between atoms: C_14  and  O_29 
REMARK    7  A    between atoms: C_15  and  C_17 
REMARK    8  A    between atoms: C_15  and  O_28 
REMARK    9  A    between atoms: C_17  and  O_18 
REMARK   10  A    between atoms: O_18  and  C_19 
REMARK   11  A    between atoms: C_19  and  C_21 
REMARK   12  A    between atoms: O_29  and  C_30 
REMARK   13  A    between atoms: C_30  and  C_32 
REMARK   14  A    between atoms: O_39  and  C_40 
REMARK   15  A    between atoms: C_40  and  C_42 
ROOT
ATOM      1  C   UNL d   1       0.002  -0.004   0.002  0.00  0.00     0.182 C 
ATOM      2  C   UNL d   1       1.480  -0.451   0.029  0.00  0.00     0.198 C 
ATOM      3  C   UNL d   1       2.192   0.804   0.604  0.00  0.00     0.228 C 
ATOM      4  C   UNL d   1       1.326   1.937  -0.000  0.00  0.00     0.214 C 
ATOM      5  O   UNL d   1      -0.017   1.428   0.010  0.00  0.00    -0.341 OA
ENDROOT
BRANCH   4   6
ATOM      6  C   UNL d   1       1.423   3.197   0.862  0.00  0.00     0.250 C 
BRANCH   6   7
ATOM      7  O   UNL d   1       0.553   4.224   0.318  0.00  0.00    -0.312 OA
BRANCH   7   8
ATOM      8  C   UNL d   1       0.522   5.405   0.966  0.00  0.00     0.294 C 
ATOM      9  O   UNL d   1       1.202   5.572   1.958  0.00  0.00    -0.259 OA
BRANCH   8  10
ATOM     10  C   UNL d   1      -0.340   6.497   0.469  0.00  0.00     0.054 A 
ATOM     11  C   UNL d   1      -1.127   6.318  -0.670  0.00  0.00     0.105 A 
ATOM     12  N   UNL d   1      -1.896   7.292  -1.113  0.00  0.00    -0.374 N 
ATOM     13  C   UNL d   1      -1.955   8.463  -0.508  0.00  0.00     0.087 A 
ATOM     14  HN  UNL d   1      -2.461   7.136  -1.947  1.00  0.00     0.164 HD
ATOM     15  C   UNL d   1      -1.206   8.719   0.627  0.00  0.00     0.018 A 
ATOM     16  C   UNL d   1      -0.387   7.728   1.136  0.00  0.00     0.020 A 
ENDBRANCH   8  10
ENDBRANCH   7   8
ENDBRANCH   6   7
ENDBRANCH   4   6
BRANCH   4  17
ATOM     17  O   UNL d   1       1.740   2.218  -1.339  0.00  0.00    -0.362 OA
ATOM     18  H   UNL d   1       1.205   2.890  -1.783  0.00  0.00     0.213 HD
ENDBRANCH   4  17
BRANCH   3  19
ATOM     19  O   UNL d   1       2.137   0.818   2.055  0.00  0.00    -0.304 OA
BRANCH  19  20
ATOM     20  C   UNL d   1       3.158   1.416   2.700  0.00  0.00     0.295 C 
ATOM     21  O   UNL d   1       4.069   1.912   2.067  0.00  0.00    -0.259 OA
BRANCH  20  22
ATOM     22  C   UNL d   1       3.169   1.470   4.176  0.00  0.00     0.054 A 
ATOM     23  C   UNL d   1       2.128   0.904   4.914  0.00  0.00     0.105 A 
ATOM     24  N   UNL d   1       2.139   0.951   6.230  0.00  0.00    -0.374 N 
ATOM     25  C   UNL d   1       3.119   1.527   6.899  0.00  0.00     0.087 A 
ATOM     26  HN  UNL d   1       1.366   0.530   6.747  1.00  0.00     0.164 HD
ATOM     27  C   UNL d   1       4.187   2.111   6.241  0.00  0.00     0.018 A 
ATOM     28  C   UNL d   1       4.227   2.083   4.859  0.00  0.00     0.020 A 
ENDBRANCH  20  22
ENDBRANCH  19  20
ENDBRANCH   3  19
BRANCH   2  29
ATOM     29  O   UNL d   1       1.657  -1.597   0.903  0.00  0.00    -0.306 OA
BRANCH  29  30
ATOM     30  C   UNL d   1       1.556  -2.816   0.341  0.00  0.00     0.295 C 
ATOM     31  O   UNL d   1       1.326  -2.920  -0.848  0.00  0.00    -0.259 OA
BRANCH  30  32
ATOM     32  C   UNL d   1       1.724  -4.028   1.169  0.00  0.00     0.054 A 
ATOM     33  C   UNL d   1       1.989  -3.923   2.535  0.00  0.00     0.105 A 
ATOM     34  N   UNL d   1       2.139  -5.003   3.273  0.00  0.00    -0.374 N 
ATOM     35  C   UNL d   1       2.048  -6.215   2.761  0.00  0.00     0.087 A 
ATOM     36  HN  UNL d   1       2.332  -4.900   4.269  1.00  0.00     0.164 HD
ATOM     37  C   UNL d   1       1.788  -6.405   1.415  0.00  0.00     0.018 A 
ATOM     38  C   UNL d   1       1.616  -5.302   0.597  0.00  0.00     0.020 A 
ENDBRANCH  30  32
ENDBRANCH  29  30
ENDBRANCH   2  29
BRANCH   1  39
ATOM     39  C   UNL d   1      -0.676  -0.525  -1.266  0.00  0.00     0.213 C 
BRANCH  39  40
ATOM     40  O   UNL d   1      -2.090  -0.194  -1.230  0.00  0.00    -0.315 OA
BRANCH  40  41
ATOM     41  C   UNL d   1      -2.836  -0.586  -2.281  0.00  0.00     0.294 C 
ATOM     42  O   UNL d   1      -2.321  -1.187  -3.202  0.00  0.00    -0.259 OA
BRANCH  41  43
ATOM     43  C   UNL d   1      -4.282  -0.283  -2.313  0.00  0.00     0.054 A 
ATOM     44  C   UNL d   1      -5.069  -0.684  -3.400  0.00  0.00     0.020 A 
ATOM     45  C   UNL d   1      -6.418  -0.377  -3.381  0.00  0.00     0.018 A 
ATOM     46  C   UNL d   1      -6.941   0.310  -2.300  0.00  0.00     0.087 A 
ATOM     47  N   UNL d   1      -6.175   0.676  -1.290  0.00  0.00    -0.374 N 
ATOM     48  C   UNL d   1      -4.888   0.402  -1.258  0.00  0.00     0.105 A 
ATOM     49  HN  UNL d   1      -6.592   1.185  -0.511  1.00  0.00     0.164 HD
ENDBRANCH  41  43
ENDBRANCH  40  41
ENDBRANCH  39  40
ENDBRANCH   1  39
TORSDOF 15
