REMARK  6 active torsions:
REMARK  status: ('A' for Active; 'I' for Inactive)
REMARK    1  A    between atoms: C_2  and  N_15 
REMARK    2  A    between atoms: C_3  and  C_4 
REMARK    3  A    between atoms: C_3  and  N_15 
REMARK    4  A    between atoms: C_4  and  C_5 
REMARK    5  A    between atoms: C_4  and  O_12 
REMARK    6  A    between atoms: C_9  and  O_11 
ROOT
ATOM      1  C   UNL d   1      -0.076   5.351   0.030  0.00  0.00     0.176 C 
ENDROOT
BRANCH   1   2
ATOM      2  C   UNL d   1      -0.197   5.851   1.471  0.00  0.00     0.268 C 
BRANCH   2   3
ATOM      3  N   UNL d   1      -0.220   7.326   1.470  0.00  0.00    -0.073 N 
ATOM      4  H   UNL d   1       0.648   7.678   1.050  0.00  0.00     0.277 HD
ATOM      5  H   UNL d   1      -1.023   7.652   0.919  0.00  0.00     0.277 HD
BRANCH   3   6
ATOM      6  C   UNL d   1      -0.336   7.837   2.848  0.00  0.00     0.228 C 
ATOM      7  C   UNL d   1      -0.358   9.367   2.816  0.00  0.00     0.034 C 
ENDBRANCH   3   6
ENDBRANCH   2   3
ENDBRANCH   1   2
BRANCH   1   8
ATOM      8  C   UNL d   1      -0.051   3.844   0.022  0.00  0.00    -0.025 A 
ATOM      9  C   UNL d   1       1.157   3.174   0.008  0.00  0.00     0.046 A 
ATOM     10  C   UNL d   1       1.179   1.786   0.000  0.00  0.00     0.066 A 
ATOM     11  C   UNL d   1      -0.013   1.076   0.008  0.00  0.00     0.036 A 
ATOM     12  C   UNL d   1      -1.218   1.751   0.017  0.00  0.00     0.003 A 
ATOM     13  C   UNL d   1      -1.237   3.133   0.029  0.00  0.00     0.010 A 
BRANCH  10  14
ATOM     14  O   UNL d   1       2.366   1.125  -0.014  0.00  0.00    -0.361 OA
ATOM     15  H   UNL d   1       2.701   0.937  -0.901  0.00  0.00     0.217 HD
ENDBRANCH  10  14
ENDBRANCH   1   8
BRANCH   1  16
ATOM     16  O   UNL d   1      -1.194   5.812  -0.730  0.00  0.00    -0.389 OA
ATOM     17  H   UNL d   1      -2.050   5.511  -0.394  0.00  0.00     0.210 HD
ENDBRANCH   1  16
TORSDOF 6
