REMARK  7 active torsions:
REMARK  status: ('A' for Active; 'I' for Inactive)
REMARK    1  A    between atoms: C_2  and  C_3 
REMARK    2  A    between atoms: C_3  and  C_4 
REMARK    3  A    between atoms: C_10  and  C_29 
REMARK    4  A    between atoms: N_13  and  C_14 
REMARK    5  A    between atoms: C_14  and  C_15 
REMARK    6  A    between atoms: C_18  and  C_21 
REMARK    7  A    between atoms: C_26  and  C_27 
ROOT
ATOM      1  C   UNL d   1      -1.109   2.727   0.613  0.00  0.00     0.084 A 
ATOM      2  N   UNL d   1      -1.262   3.759   1.391  0.00  0.00    -0.344 N 
ATOM      3  HN  UNL d   1      -0.729   4.627   1.327  1.00  0.00     0.167 HD
ATOM      4  C   UNL d   1      -2.236   3.507   2.300  0.00  0.00     0.066 A 
ATOM      5  C   UNL d   1      -2.793   4.253   3.345  0.00  0.00    -0.032 A 
ATOM      6  C   UNL d   1      -3.783   3.718   4.114  0.00  0.00     0.024 A 
ATOM      7  C   UNL d   1      -4.253   2.421   3.868  0.00  0.00     0.011 A 
ATOM      8  C   UNL d   1      -3.709   1.665   2.833  0.00  0.00     0.047 A 
ATOM      9  C   UNL d   1      -2.703   2.204   2.048  0.00  0.00     0.064 A 
ATOM     10  N   UNL d   1      -1.969   1.738   0.974  0.00  0.00    -0.330 N 
ATOM     11  C   UNL d   1      -2.298   5.649   3.620  0.00  0.00     0.050 C 
ENDROOT
BRANCH  10  12
ATOM     12  C   UNL d   1      -2.095   0.422   0.342  0.00  0.00     0.169 C 
BRANCH  12  13
ATOM     13  C   UNL d   1      -1.164  -0.551   1.017  0.00  0.00    -0.040 A 
ATOM     14  C   UNL d   1      -1.605  -1.286   2.102  0.00  0.00     0.010 A 
ATOM     15  C   UNL d   1      -0.757  -2.179   2.725  0.00  0.00     0.013 A 
ATOM     16  C   UNL d   1       0.547  -2.340   2.257  0.00  0.00    -0.025 A 
ATOM     17  C   UNL d   1       0.986  -1.595   1.163  0.00  0.00     0.013 A 
ATOM     18  C   UNL d   1       0.127  -0.710   0.545  0.00  0.00     0.010 A 
BRANCH  16  19
ATOM     19  C   UNL d   1       1.463  -3.296   2.922  0.00  0.00    -0.009 A 
ATOM     20  C   UNL d   1       2.674  -2.846   3.478  0.00  0.00     0.051 A 
ATOM     21  C   UNL d   1       3.525  -3.758   4.106  0.00  0.00     0.019 A 
ATOM     22  C   UNL d   1       3.179  -5.092   4.167  0.00  0.00     0.001 A 
ATOM     23  C   UNL d   1       1.989  -5.535   3.613  0.00  0.00     0.001 A 
ATOM     24  C   UNL d   1       1.133  -4.647   2.993  0.00  0.00     0.013 A 
BRANCH  20  25
ATOM     25  C   UNL d   1       3.041  -1.420   3.405  0.00  0.00     0.210 C 
ATOM     26  O   UNL d   1       2.247  -0.611   2.966  0.00  0.00    -0.644 OA
ATOM     27  O   UNL d   1       4.255  -1.013   3.823  0.00  0.00    -0.644 OA
ENDBRANCH  20  25
ENDBRANCH  16  19
ENDBRANCH  12  13
ENDBRANCH  10  12
BRANCH   1  28
ATOM     28  C   UNL d   1      -0.119   2.639  -0.520  0.00  0.00     0.076 C 
BRANCH  28  29
ATOM     29  C   UNL d   1      -0.773   3.138  -1.809  0.00  0.00     0.003 C 
ATOM     30  C   UNL d   1       0.232   3.048  -2.959  0.00  0.00     0.005 C 
ENDBRANCH  28  29
ENDBRANCH   1  28
BRANCH   7  31
ATOM     31  C   UNL d   1      -5.327   1.854   4.709  0.00  0.00     0.118 A 
ATOM     32  N   UNL d   1      -5.545   2.167   6.024  0.00  0.00    -0.335 N 
ATOM     33  C   UNL d   1      -6.636   1.429   6.444  0.00  0.00     0.062 A 
ATOM     34  C   UNL d   1      -4.768   3.107   6.835  0.00  0.00     0.158 C 
ATOM     35  C   UNL d   1      -7.050   0.674   5.332  0.00  0.00     0.060 A 
ATOM     36  C   UNL d   1      -7.319   1.319   7.647  0.00  0.00     0.032 A 
ATOM     37  N   UNL d   1      -6.219   0.981   4.307  0.00  0.00    -0.340 N 
ATOM     38  C   UNL d   1      -8.150  -0.181   5.454  0.00  0.00     0.032 A 
ATOM     39  HN  UNL d   1      -6.277   0.592   3.366  1.00  0.00     0.167 HD
ATOM     40  C   UNL d   1      -8.810  -0.276   6.647  0.00  0.00     0.002 A 
ATOM     41  C   UNL d   1      -8.400   0.469   7.744  0.00  0.00     0.002 A 
ENDBRANCH   7  31
TORSDOF 7
