REMARK  4 active torsions:
REMARK  status: ('A' for Active; 'I' for Inactive)
REMARK    1  A    between atoms: C_4  and  N_9 
REMARK    2  A    between atoms: C_5  and  C_7 
REMARK    3  A    between atoms: N_9  and  C_10 
REMARK    4  A    between atoms: C_14  and  C_16 
ROOT
ATOM      1  N   UNL d   1      -0.041   5.192   0.046  0.00  0.00    -0.355 N 
ATOM      2  H   UNL d   1      -0.892   5.648  -0.041  0.00  0.00     0.166 HD
ENDROOT
BRANCH   1   3
ATOM      3  C   UNL d   1       1.135   5.926   0.134  0.00  0.00     0.049 A 
ATOM      4  C   UNL d   1       1.485   6.544   1.329  0.00  0.00     0.030 A 
ATOM      5  C   UNL d   1       2.655   7.268   1.415  0.00  0.00     0.002 A 
ATOM      6  C   UNL d   1       3.486   7.395   0.312  0.00  0.00     0.001 A 
ATOM      7  C   UNL d   1       3.154   6.795  -0.882  0.00  0.00     0.021 A 
ATOM      8  C   UNL d   1       1.973   6.053  -0.985  0.00  0.00     0.067 A 
BRANCH   8   9
ATOM      9  C   UNL d   1       1.612   5.407  -2.259  0.00  0.00     0.211 C 
ATOM     10  O   UNL d   1       0.533   4.861  -2.379  0.00  0.00    -0.644 OA
ATOM     11  O   UNL d   1       2.478   5.423  -3.291  0.00  0.00    -0.644 OA
ENDBRANCH   8   9
ENDBRANCH   1   3
BRANCH   1  12
ATOM     12  C   UNL d   1       0.003   3.796   0.083  0.00  0.00     0.033 A 
ATOM     13  C   UNL d   1      -1.177   3.062   0.081  0.00  0.00     0.045 A 
ATOM     14  C   UNL d   1      -1.130   1.682   0.111  0.00  0.00     0.050 A 
ATOM     15  C   UNL d   1       0.089   1.031   0.154  0.00  0.00     0.016 A 
ATOM     16  C   UNL d   1       1.265   1.758   0.156  0.00  0.00     0.003 A 
ATOM     17  C   UNL d   1       1.226   3.138   0.120  0.00  0.00     0.029 A 
BRANCH  14  18
ATOM     18  C   UNL d   1      -2.409   0.885   0.103  0.00  0.00     0.417 C 
ATOM     19  F   UNL d   1      -2.108  -0.480   0.144  0.00  0.00    -0.166 F 
ATOM     20  F   UNL d   1      -3.178   1.227   1.221  0.00  0.00    -0.166 F 
ATOM     21  F   UNL d   1      -3.128   1.169  -1.063  0.00  0.00    -0.166 F 
ENDBRANCH  14  18
ENDBRANCH   1  12
TORSDOF 4
