REMARK  2 active torsions:
REMARK  status: ('A' for Active; 'I' for Inactive)
REMARK    1  A    between atoms: C_2  and  N_20 
REMARK    2  A    between atoms: C_5  and  C_12 
ROOT
ATOM      1  C   UNL d   1      -2.192  -3.725   0.036  0.00  0.00     0.218 C 
ATOM      2  C   UNL d   1      -2.343  -2.590  -0.974  0.00  0.00     0.039 C 
ATOM      3  C   UNL d   1      -1.038  -1.784  -0.995  0.00  0.00     0.016 C 
ATOM      4  C   UNL d   1      -0.919  -1.026   0.326  0.00  0.00     0.052 C 
ATOM      5  C   UNL d   1      -1.118  -1.958   1.492  0.00  0.00    -0.041 A 
ATOM      6  C   UNL d   1      -1.706  -3.196   1.360  0.00  0.00    -0.021 A 
ATOM      7  C   UNL d   1      -1.866  -4.004   2.478  0.00  0.00     0.010 A 
ATOM      8  C   UNL d   1      -1.437  -3.579   3.718  0.00  0.00     0.001 A 
ATOM      9  C   UNL d   1      -0.842  -2.338   3.850  0.00  0.00     0.001 A 
ATOM     10  C   UNL d   1      -0.685  -1.532   2.741  0.00  0.00     0.008 A 
ENDROOT
BRANCH   4  11
ATOM     11  C   UNL d   1       0.448  -0.399   0.417  0.00  0.00    -0.048 A 
ATOM     12  C   UNL d   1       1.576  -1.198   0.406  0.00  0.00     0.033 A 
ATOM     13  C   UNL d   1       2.832  -0.624   0.490  0.00  0.00     0.056 A 
ATOM     14  C   UNL d   1       2.958   0.752   0.585  0.00  0.00     0.055 A 
ATOM     15 CL   UNL d   1       4.248  -1.627   0.477  0.00  0.00    -0.083 Cl
ATOM     16  C   UNL d   1       1.828   1.550   0.596  0.00  0.00     0.026 A 
ATOM     17 CL   UNL d   1       4.532   1.474   0.691  0.00  0.00    -0.083 Cl
ATOM     18  C   UNL d   1       0.574   0.975   0.512  0.00  0.00     0.009 A 
ENDBRANCH   4  11
BRANCH   1  19
ATOM     19  N   UNL d   1      -3.499  -4.380   0.232  0.00  0.00    -0.071 N 
ATOM     20  C   UNL d   1      -3.723  -5.398  -0.812  0.00  0.00     0.267 C 
ATOM     21  H   UNL d   1      -3.516  -4.832   1.154  0.00  0.00     0.277 HD
ATOM     22  H   UNL d   1      -4.242  -3.674   0.182  0.00  0.00     0.277 HD
ENDBRANCH   1  19
TORSDOF 2
