REMARK  5 active torsions:
REMARK  status: ('A' for Active; 'I' for Inactive)
REMARK    1  A    between atoms: C_3  and  C_4 
REMARK    2  A    between atoms: C_3  and  N_20 
REMARK    3  A    between atoms: C_9  and  C_10 
REMARK    4  A    between atoms: C_9  and  O_18 
REMARK    5  A    between atoms: C_14  and  O_16 
ROOT
ATOM      1  C   UNL d   1      -1.748   3.455   0.075  0.00  0.00     0.050 C 
ATOM      2  C   UNL d   1      -3.162   2.932   0.340  0.00  0.00     0.010 C 
ATOM      3  C   UNL d   1      -4.088   3.364  -0.798  0.00  0.00     0.001 C 
ATOM      4  C   UNL d   1      -4.117   4.892  -0.881  0.00  0.00     0.003 C 
ATOM      5  C   UNL d   1      -2.704   5.415  -1.146  0.00  0.00     0.043 C 
ATOM      6  C   UNL d   1      -1.778   4.983  -0.008  0.00  0.00     0.090 C 
ENDROOT
BRANCH   6   7
ATOM      7  C   UNL d   1      -0.386   5.498  -0.269  0.00  0.00    -0.021 A 
ATOM      8  C   UNL d   1      -0.011   6.742   0.200  0.00  0.00     0.047 A 
ATOM      9  C   UNL d   1       1.272   7.214  -0.037  0.00  0.00     0.068 A 
ATOM     10  C   UNL d   1       2.172   6.439  -0.753  0.00  0.00     0.037 A 
ATOM     11  C   UNL d   1       1.791   5.198  -1.225  0.00  0.00     0.003 A 
ATOM     12  C   UNL d   1       0.513   4.728  -0.984  0.00  0.00     0.010 A 
BRANCH   9  13
ATOM     13  O   UNL d   1       1.645   8.436   0.428  0.00  0.00    -0.356 OA
ATOM     14  C   UNL d   1       2.979   8.859   0.142  0.00  0.00     0.210 C 
ENDBRANCH   9  13
ENDBRANCH   6   7
BRANCH   6  15
ATOM     15  O   UNL d   1      -2.259   5.517   1.227  0.00  0.00    -0.385 OA
ATOM     16  H   UNL d   1      -2.304   6.483   1.247  0.00  0.00     0.211 HD
ENDBRANCH   6  15
BRANCH   1  17
ATOM     17  C   UNL d   1      -0.822   3.023   1.213  0.00  0.00     0.242 C 
BRANCH  17  18
ATOM     18  N   UNL d   1      -0.727   1.548   1.217  0.00  0.00    -0.078 N 
ATOM     19  C   UNL d   1      -0.013   1.086   0.008  0.00  0.00     0.269 C 
ATOM     20  C   UNL d   1      -0.016   1.091   2.429  0.00  0.00     0.269 C 
ATOM     21  H   UNL d   1      -1.674   1.153   1.216  0.00  0.00     0.279 HD
ENDBRANCH  17  18
ENDBRANCH   1  17
TORSDOF 5
