REMARK  10 active torsions:
REMARK  status: ('A' for Active; 'I' for Inactive)
REMARK    1  A    between atoms: C_2  and  C_3 
REMARK    2  A    between atoms: C_3  and  N_4 
REMARK    3  A    between atoms: N_4  and  C_5 
REMARK       I    between atoms: N_4  and  C_8 
REMARK    4  A    between atoms: C_5  and  C_6 
REMARK    5  A    between atoms: C_8  and  C_10 
REMARK    6  A    between atoms: C_10  and  C_11 
REMARK    7  A    between atoms: C_10  and  N_15 
REMARK    8  A    between atoms: C_11  and  C_12 
REMARK    9  A    between atoms: C_12  and  C_13 
REMARK       I    between atoms: N_15  and  C_16 
REMARK   10  A    between atoms: C_16  and  C_18 
ROOT
ATOM      1  C   UNL d   1       6.150  -0.707  -0.094  0.00  0.00     0.177 C 
ENDROOT
BRANCH   1   2
ATOM      2  C   UNL d   1       7.261   0.067  -0.754  0.00  0.00     0.242 C 
ATOM      3  N   UNL d   1       8.443  -0.531  -1.003  0.00  0.00    -0.350 N 
ATOM      4  O   UNL d   1       7.093   1.228  -1.062  0.00  0.00    -0.271 OA
BRANCH   3   5
ATOM      5  C   UNL d   1       9.558   0.248  -1.548  0.00  0.00     0.125 C 
BRANCH   5   6
ATOM      6  C   UNL d   1      10.384   0.829  -0.400  0.00  0.00     0.015 C 
ATOM      7  C   UNL d   1      11.549   1.642  -0.969  0.00  0.00     0.006 C 
ENDBRANCH   5   6
ENDBRANCH   3   5
BRANCH   3   8
ATOM      8  C   UNL d   1       8.614  -1.960  -0.728  0.00  0.00     0.125 C 
BRANCH   8   9
ATOM      9  C   UNL d   1       8.104  -2.773  -1.920  0.00  0.00     0.015 C 
ATOM     10  C   UNL d   1       8.282  -4.265  -1.633  0.00  0.00     0.006 C 
ENDBRANCH   8   9
ENDBRANCH   3   8
ENDBRANCH   1   2
BRANCH   1  11
ATOM     11  C   UNL d   1       6.422  -0.809   1.408  0.00  0.00     0.045 C 
BRANCH  11  12
ATOM     12  C   UNL d   1       5.376  -1.719   2.056  0.00  0.00     0.116 C 
BRANCH  12  13
ATOM     13  C   UNL d   1       5.645  -1.820   3.535  0.00  0.00     0.172 C 
ATOM     14  O   UNL d   1       6.577  -1.226   4.022  0.00  0.00    -0.648 OA
ATOM     15  O   UNL d   1       4.848  -2.571   4.312  0.00  0.00    -0.648 OA
ENDBRANCH  12  13
ENDBRANCH  11  12
ENDBRANCH   1  11
BRANCH   1  16
ATOM     16  N   UNL d   1       4.877  -0.016  -0.313  0.00  0.00    -0.344 N 
ATOM     17  C   UNL d   1       3.720  -0.707  -0.281  0.00  0.00     0.252 C 
ATOM     18  O   UNL d   1       3.734  -1.905  -0.071  0.00  0.00    -0.268 OA
ATOM     19  H   UNL d   1       4.866   0.940  -0.480  0.00  0.00     0.163 HD
BRANCH  17  20
ATOM     20  C   UNL d   1       2.436  -0.010  -0.502  0.00  0.00     0.032 A 
ATOM     21  C   UNL d   1       2.417   1.365  -0.743  0.00  0.00     0.017 A 
ATOM     22  C   UNL d   1       1.214   2.009  -0.949  0.00  0.00     0.001 A 
ATOM     23  C   UNL d   1       0.029   1.296  -0.915  0.00  0.00     0.000 A 
ATOM     24  C   UNL d   1       0.041  -0.067  -0.677  0.00  0.00     0.001 A 
ATOM     25  C   UNL d   1       1.236  -0.723  -0.470  0.00  0.00     0.017 A 
ENDBRANCH  17  20
ENDBRANCH   1  16
TORSDOF 10
