REMARK  8 active torsions:
REMARK  status: ('A' for Active; 'I' for Inactive)
REMARK    1  A    between atoms: C_4  and  O_33 
REMARK    2  A    between atoms: C_10  and  C_11 
REMARK    3  A    between atoms: C_10  and  O_22 
REMARK    4  A    between atoms: C_11  and  C_13 
REMARK    5  A    between atoms: C_13  and  O_14 
REMARK    6  A    between atoms: O_14  and  C_15 
REMARK    7  A    between atoms: C_15  and  C_17 
REMARK    8  A    between atoms: C_17  and  C_18 
ROOT
ATOM      1  C   UNL d   1      -2.926  -0.993  -3.197  0.00  0.00     0.019 C 
ATOM      2  C   UNL d   1      -3.355  -1.681  -1.898  0.00  0.00     0.001 C 
ATOM      3  C   UNL d   1      -3.365  -0.691  -0.757  0.00  0.00     0.045 C 
ATOM      4  C   UNL d   1      -2.103  -0.871   0.107  0.00  0.00     0.124 C 
ATOM      5  C   UNL d   1      -0.877  -1.097  -0.761  0.00  0.00     0.035 C 
ATOM      6  C   UNL d   1      -0.978  -2.394  -1.550  0.00  0.00    -0.002 C 
ATOM      7  C   UNL d   1      -2.422  -2.862  -1.548  0.00  0.00     0.002 C 
ATOM      8  C   UNL d   1      -2.760  -3.885  -2.645  0.00  0.00     0.009 C 
ATOM      9  C   UNL d   1      -4.287  -3.715  -2.858  0.00  0.00     0.047 C 
ATOM     10  C   UNL d   1      -4.690  -2.401  -2.146  0.00  0.00     0.128 C 
ATOM     11  C   UNL d   1      -0.101  -3.487  -0.933  0.00  0.00     0.010 C 
ATOM     12  C   UNL d   1       1.363  -3.091  -1.120  0.00  0.00     0.036 C 
ATOM     13  C   UNL d   1       1.575  -1.688  -0.596  0.00  0.00    -0.064 C 
ATOM     14  C   UNL d   1       2.833  -1.230  -0.635  0.00  0.00     0.058 C 
ATOM     15  C   UNL d   1       3.131   0.151  -0.209  0.00  0.00     0.172 C 
ATOM     16  O   UNL d   1       4.285   0.518  -0.004  0.00  0.00    -0.289 OA
ATOM     17  C   UNL d   1       1.994   1.078  -0.034  0.00  0.00     0.052 C 
ATOM     18  C   UNL d   1       0.751   0.599   0.000  0.00  0.00    -0.009 C 
ATOM     19  C   UNL d   1       0.443  -0.870  -0.077  0.00  0.00     0.004 C 
ATOM     20  C   UNL d   1       0.284  -1.319   1.380  0.00  0.00     0.025 C 
ENDROOT
BRANCH  10  21
ATOM     21  C   UNL d   1      -5.571  -1.570  -3.039  0.00  0.00     0.185 C 
ATOM     22  O   UNL d   1      -5.082  -0.910  -3.925  0.00  0.00    -0.292 OA
BRANCH  21  23
ATOM     23  C   UNL d   1      -7.063  -1.562  -2.830  0.00  0.00     0.260 C 
BRANCH  23  24
ATOM     24  O   UNL d   1      -7.685  -0.691  -3.811  0.00  0.00    -0.314 OA
BRANCH  24  25
ATOM     25  C   UNL d   1      -9.021  -0.572  -3.760  0.00  0.00     0.259 C 
ATOM     26  O   UNL d   1      -9.650  -1.177  -2.924  0.00  0.00    -0.265 OA
BRANCH  25  27
ATOM     27  C   UNL d   1      -9.736   0.314  -4.746  0.00  0.00     0.119 C 
BRANCH  27  28
ATOM     28  C   UNL d   1     -11.241   0.272  -4.472  0.00  0.00    -0.043 C 
ATOM     29  C   UNL d   1     -11.515   0.766  -3.050  0.00  0.00     0.015 C 
ATOM     30  C   UNL d   1     -11.968   1.172  -5.474  0.00  0.00     0.015 C 
ATOM     31  C   UNL d   1     -11.746  -1.165  -4.619  0.00  0.00     0.015 C 
ENDBRANCH  27  28
ENDBRANCH  25  27
ENDBRANCH  24  25
ENDBRANCH  23  24
ENDBRANCH  21  23
ENDBRANCH  10  21
BRANCH  10  32
ATOM     32  O   UNL d   1      -5.345  -2.688  -0.914  0.00  0.00    -0.381 OA
ATOM     33  H   UNL d   1      -6.193  -3.142  -1.016  0.00  0.00     0.211 HD
ENDBRANCH  10  32
BRANCH   4  34
ATOM     34  O   UNL d   1      -1.960   0.319   0.892  0.00  0.00    -0.395 OA
ATOM     35  H   UNL d   1      -2.717   0.507   1.464  0.00  0.00     0.210 HD
ENDBRANCH   4  34
TORSDOF 8
