REMARK  18 active torsions:
REMARK  status: ('A' for Active; 'I' for Inactive)
REMARK    1  A    between atoms: C_9  and  O_36 
REMARK    2  A    between atoms: C_18  and  O_19 
REMARK    3  A    between atoms: O_19  and  C_20 
REMARK    4  A    between atoms: C_20  and  C_22 
REMARK    5  A    between atoms: C_22  and  C_23 
REMARK    6  A    between atoms: C_26  and  N_29 
REMARK    7  A    between atoms: N_29  and  C_30 
REMARK    8  A    between atoms: N_29  and  C_33 
REMARK    9  A    between atoms: C_30  and  C_31 
REMARK   10  A    between atoms: C_33  and  C_34 
REMARK   11  A    between atoms: O_36  and  C_37 
REMARK   12  A    between atoms: C_37  and  C_39 
REMARK   13  A    between atoms: C_39  and  C_40 
REMARK   14  A    between atoms: C_43  and  N_46 
REMARK   15  A    between atoms: N_46  and  C_47 
REMARK   16  A    between atoms: N_46  and  C_50 
REMARK   17  A    between atoms: C_47  and  C_48 
REMARK   18  A    between atoms: C_50  and  C_51 
ROOT
ATOM      1  C   UNL d   1       5.064   3.903   0.526  0.00  0.00     0.018 C 
ATOM      2  C   UNL d   1       4.034   2.788   0.821  0.00  0.00    -0.013 C 
ATOM      3  C   UNL d   1       2.824   3.458   1.426  0.00  0.00     0.013 C 
ATOM      4  C   UNL d   1       1.576   2.589   1.415  0.00  0.00     0.010 C 
ATOM      5  C   UNL d   1       1.277   2.147  -0.024  0.00  0.00     0.023 C 
ATOM      6  C   UNL d   1       0.006   1.333  -0.013  0.00  0.00    -0.047 A 
ATOM      7  C   UNL d   1      -1.197   2.018   0.102  0.00  0.00     0.011 A 
ATOM      8  C   UNL d   1      -2.394   1.334   0.131  0.00  0.00     0.038 A 
ATOM      9  C   UNL d   1      -2.397  -0.051   0.044  0.00  0.00     0.079 A 
ATOM     10  C   UNL d   1      -1.199  -0.732  -0.077  0.00  0.00     0.045 A 
ATOM     11  C   UNL d   1       0.005  -0.041  -0.107  0.00  0.00    -0.049 A 
ATOM     12  C   UNL d   1       1.270  -0.849  -0.235  0.00  0.00     0.039 C 
ATOM     13  C   UNL d   1       2.479  -0.019   0.208  0.00  0.00     0.010 C 
ATOM     14  C   UNL d   1       2.440   1.312  -0.537  0.00  0.00    -0.001 C 
ATOM     15  C   UNL d   1       3.759   2.055  -0.495  0.00  0.00     0.001 C 
ATOM     16  C   UNL d   1       4.913   1.028  -0.596  0.00  0.00     0.008 C 
ATOM     17  C   UNL d   1       5.297   0.680   0.851  0.00  0.00     0.034 C 
ATOM     18  C   UNL d   1       4.706   1.778   1.757  0.00  0.00     0.140 C 
ENDROOT
BRANCH   9  19
ATOM     19  O   UNL d   1      -3.571  -0.735   0.077  0.00  0.00    -0.279 OA
BRANCH  19  20
ATOM     20  C   UNL d   1      -3.811  -1.481   1.167  0.00  0.00     0.268 C 
ATOM     21  O   UNL d   1      -3.051  -1.442   2.106  0.00  0.00    -0.265 OA
BRANCH  20  22
ATOM     22  C   UNL d   1      -5.028  -2.369   1.220  0.00  0.00     0.150 C 
BRANCH  22  23
ATOM     23  C   UNL d   1      -5.064  -3.094   2.540  0.00  0.00    -0.049 A 
ATOM     24  C   UNL d   1      -5.715  -2.527   3.621  0.00  0.00     0.010 A 
ATOM     25  C   UNL d   1      -5.750  -3.189   4.832  0.00  0.00     0.030 A 
ATOM     26  C   UNL d   1      -5.130  -4.425   4.965  0.00  0.00     0.030 A 
ATOM     27  C   UNL d   1      -4.478  -4.992   3.877  0.00  0.00     0.030 A 
ATOM     28  C   UNL d   1      -4.451  -4.327   2.667  0.00  0.00     0.010 A 
BRANCH  26  29
ATOM     29  N   UNL d   1      -5.164  -5.097   6.189  0.00  0.00    -0.379 N 
BRANCH  29  30
ATOM     30  C   UNL d   1      -4.510  -6.401   6.327  0.00  0.00     0.138 C 
BRANCH  30  31
ATOM     31  C   UNL d   1      -3.058  -6.200   6.768  0.00  0.00     0.134 C 
ATOM     32 CL   UNL d   1      -2.254  -7.804   6.937  0.00  0.00    -0.129 Cl
ENDBRANCH  30  31
ENDBRANCH  29  30
BRANCH  29  33
ATOM     33  C   UNL d   1      -5.852  -4.499   7.335  0.00  0.00     0.138 C 
BRANCH  33  34
ATOM     34  C   UNL d   1      -7.316  -4.945   7.341  0.00  0.00     0.134 C 
ATOM     35 CL   UNL d   1      -8.163  -4.208   8.751  0.00  0.00    -0.129 Cl
ENDBRANCH  33  34
ENDBRANCH  29  33
ENDBRANCH  26  29
ENDBRANCH  22  23
ENDBRANCH  20  22
ENDBRANCH  19  20
ENDBRANCH   9  19
BRANCH  18  36
ATOM     36  O   UNL d   1       3.776   1.220   2.719  0.00  0.00    -0.315 OA
BRANCH  36  37
ATOM     37  C   UNL d   1       4.277   0.852   3.909  0.00  0.00     0.263 C 
ATOM     38  O   UNL d   1       5.455   0.992   4.137  0.00  0.00    -0.265 OA
BRANCH  37  39
ATOM     39  C   UNL d   1       3.370   0.264   4.959  0.00  0.00     0.149 C 
BRANCH  39  40
ATOM     40  C   UNL d   1       4.173  -0.062   6.191  0.00  0.00    -0.049 A 
ATOM     41  C   UNL d   1       4.328   0.887   7.185  0.00  0.00     0.010 A 
ATOM     42  C   UNL d   1       5.064   0.592   8.316  0.00  0.00     0.030 A 
ATOM     43  C   UNL d   1       5.649  -0.660   8.454  0.00  0.00     0.030 A 
ATOM     44  C   UNL d   1       5.492  -1.611   7.454  0.00  0.00     0.030 A 
ATOM     45  C   UNL d   1       4.750  -1.311   6.328  0.00  0.00     0.010 A 
BRANCH  43  46
ATOM     46  N   UNL d   1       6.394  -0.963   9.596  0.00  0.00    -0.379 N 
BRANCH  46  47
ATOM     47  C   UNL d   1       7.011  -2.284   9.740  0.00  0.00     0.138 C 
BRANCH  47  48
ATOM     48  C   UNL d   1       8.418  -2.257   9.142  0.00  0.00     0.134 C 
ATOM     49 CL   UNL d   1       9.178  -3.883   9.319  0.00  0.00    -0.129 Cl
ENDBRANCH  47  48
ENDBRANCH  46  47
BRANCH  46  50
ATOM     50  C   UNL d   1       6.558   0.041  10.651  0.00  0.00     0.138 C 
BRANCH  50  51
ATOM     51  C   UNL d   1       5.422  -0.096  11.667  0.00  0.00     0.134 C 
ATOM     52 CL   UNL d   1       5.624   1.140  12.964  0.00  0.00    -0.129 Cl
ENDBRANCH  50  51
ENDBRANCH  46  50
ENDBRANCH  43  46
ENDBRANCH  39  40
ENDBRANCH  37  39
ENDBRANCH  36  37
ENDBRANCH  18  36
TORSDOF 18
