REMARK  5 active torsions:
REMARK  status: ('A' for Active; 'I' for Inactive)
REMARK    1  A    between atoms: C_4  and  C_7 
REMARK    2  A    between atoms: C_10  and  C_13 
REMARK    3  A    between atoms: C_13  and  C_15 
REMARK    4  A    between atoms: C_15  and  C_16 
REMARK    5  A    between atoms: C_16  and  C_17 
ROOT
ATOM      1  C   UNL d   1      -0.018   1.478   0.010  0.00  0.00    -0.026 A 
ATOM      2  C   UNL d   1      -1.237   2.158   0.020  0.00  0.00     0.013 A 
ATOM      3  C   UNL d   1      -1.258   3.529   0.032  0.00  0.00     0.016 A 
ATOM      4  C   UNL d   1      -0.056   4.247   0.025  0.00  0.00     0.010 A 
ATOM      5  C   UNL d   1       1.166   3.562   0.010  0.00  0.00     0.016 A 
ATOM      6  C   UNL d   1       1.182   2.191   0.003  0.00  0.00     0.013 A 
ENDROOT
BRANCH   4   7
ATOM      7  C   UNL d   1      -0.075   5.716   0.032  0.00  0.00     0.160 C 
ATOM      8  O   UNL d   1       0.966   6.337   0.025  0.00  0.00    -0.292 OA
BRANCH   7   9
ATOM      9  C   UNL d   1      -1.391   6.452   0.048  0.00  0.00     0.094 C 
BRANCH   9  10
ATOM     10  C   UNL d   1      -1.131   7.960   0.052  0.00  0.00     0.121 C 
BRANCH  10  11
ATOM     11  C   UNL d   1      -2.447   8.696   0.068  0.00  0.00     0.172 C 
ATOM     12  O   UNL d   1      -3.485   8.077   0.075  0.00  0.00    -0.648 OA
ATOM     13  O   UNL d   1      -2.465  10.038   0.075  0.00  0.00    -0.648 OA
ENDBRANCH  10  11
ENDBRANCH   9  10
ENDBRANCH   7   9
ENDBRANCH   4   7
BRANCH   1  14
ATOM     14  C   UNL d   1       0.002  -0.004   0.002  0.00  0.00    -0.026 A 
ATOM     15  C   UNL d   1      -1.194  -0.720   0.010  0.00  0.00     0.012 A 
ATOM     16  C   UNL d   1      -1.169  -2.100   0.002  0.00  0.00     0.001 A 
ATOM     17  C   UNL d   1       0.040  -2.772  -0.014  0.00  0.00     0.000 A 
ATOM     18  C   UNL d   1       1.230  -2.067  -0.021  0.00  0.00     0.001 A 
ATOM     19  C   UNL d   1       1.217  -0.687  -0.019  0.00  0.00     0.012 A 
ENDBRANCH   1  14
TORSDOF 5
