REMARK  9 active torsions:
REMARK  status: ('A' for Active; 'I' for Inactive)
REMARK    1  A    between atoms: C_3  and  C_4 
REMARK    2  A    between atoms: C_3  and  N_29 
REMARK    3  A    between atoms: C_4  and  O_5 
REMARK    4  A    between atoms: O_5  and  C_6 
REMARK    5  A    between atoms: C_9  and  C_12 
REMARK    6  A    between atoms: C_12  and  C_23 
REMARK    7  A    between atoms: C_13  and  C_14 
REMARK    8  A    between atoms: C_13  and  C_17 
REMARK    9  A    between atoms: C_14  and  C_15 
ROOT
ATOM      1  C   UNL d   1      -2.622   3.455   0.425  0.00  0.00    -0.009 C 
ATOM      2  C   UNL d   1      -3.479   3.378  -0.622  0.00  0.00    -0.035 C 
ENDROOT
BRANCH   1   3
ATOM      3  C   UNL d   1      -2.867   4.428   1.512  0.00  0.00    -0.024 A 
ATOM      4  C   UNL d   1      -3.151   3.979   2.803  0.00  0.00     0.015 A 
ATOM      5  C   UNL d   1      -3.380   4.888   3.813  0.00  0.00     0.037 A 
ATOM      6  C   UNL d   1      -3.327   6.251   3.548  0.00  0.00     0.068 A 
ATOM      7  C   UNL d   1      -3.045   6.702   2.265  0.00  0.00     0.037 A 
ATOM      8  C   UNL d   1      -2.810   5.798   1.251  0.00  0.00     0.015 A 
BRANCH   6   9
ATOM      9  O   UNL d   1      -3.552   7.144   4.546  0.00  0.00    -0.350 OA
BRANCH   9  10
ATOM     10  C   UNL d   1      -3.483   8.530   4.205  0.00  0.00     0.203 C 
BRANCH  10  11
ATOM     11  C   UNL d   1      -3.762   9.377   5.448  0.00  0.00     0.260 C 
BRANCH  11  12
ATOM     12  N   UNL d   1      -2.704   9.116   6.446  0.00  0.00    -0.077 N 
ATOM     13  C   UNL d   1      -1.477   9.860   6.087  0.00  0.00     0.269 C 
ATOM     14  C   UNL d   1      -3.165   9.522   7.790  0.00  0.00     0.269 C 
ATOM     15  H   UNL d   1      -2.494   8.111   6.455  0.00  0.00     0.279 HD
ENDBRANCH  11  12
ENDBRANCH  10  11
ENDBRANCH   9  10
ENDBRANCH   6   9
ENDBRANCH   1   3
BRANCH   1  16
ATOM     16  C   UNL d   1      -1.441   2.566   0.481  0.00  0.00    -0.025 A 
ATOM     17  C   UNL d   1      -0.155   3.103   0.409  0.00  0.00     0.012 A 
ATOM     18  C   UNL d   1       0.942   2.269   0.462  0.00  0.00     0.001 A 
ATOM     19  C   UNL d   1       0.770   0.901   0.586  0.00  0.00     0.000 A 
ATOM     20  C   UNL d   1      -0.502   0.362   0.658  0.00  0.00     0.001 A 
ATOM     21  C   UNL d   1      -1.608   1.186   0.601  0.00  0.00     0.012 A 
ENDBRANCH   1  16
BRANCH   2  22
ATOM     22  C   UNL d   1      -3.156   2.493  -1.798  0.00  0.00     0.055 C 
BRANCH  22  23
ATOM     23  C   UNL d   1      -2.433   3.312  -2.869  0.00  0.00     0.119 C 
ATOM     24 CL   UNL d   1      -1.914   2.223  -4.209  0.00  0.00    -0.130 Cl
ENDBRANCH  22  23
ENDBRANCH   2  22
BRANCH   2  25
ATOM     25  C   UNL d   1      -4.726   4.159  -0.611  0.00  0.00    -0.029 A 
ATOM     26  C   UNL d   1      -4.926   5.177  -1.550  0.00  0.00     0.012 A 
ATOM     27  C   UNL d   1      -6.097   5.905  -1.533  0.00  0.00     0.001 A 
ATOM     28  C   UNL d   1      -7.073   5.630  -0.590  0.00  0.00     0.000 A 
ATOM     29  C   UNL d   1      -6.882   4.625   0.342  0.00  0.00     0.001 A 
ATOM     30  C   UNL d   1      -5.719   3.885   0.335  0.00  0.00     0.012 A 
ENDBRANCH   2  25
TORSDOF 9
