REMARK  22 active torsions:
REMARK  status: ('A' for Active; 'I' for Inactive)
REMARK    1  A    between atoms: C_2  and  N_60 
REMARK    2  A    between atoms: C_3  and  O_26 
REMARK    3  A    between atoms: C_4  and  O_25 
REMARK    4  A    between atoms: C_5  and  O_14 
REMARK    5  A    between atoms: C_6  and  N_7 
REMARK       I    between atoms: N_7  and  C_8 
REMARK    6  A    between atoms: C_8  and  C_10 
REMARK    7  A    between atoms: C_10  and  C_11 
REMARK    8  A    between atoms: C_10  and  O_13 
REMARK    9  A    between atoms: C_11  and  C_12 
REMARK   10  A    between atoms: C_12  and  N_54 
REMARK   11  A    between atoms: O_14  and  C_15 
REMARK   12  A    between atoms: C_16  and  O_24 
REMARK   13  A    between atoms: C_17  and  N_56 
REMARK   14  A    between atoms: C_18  and  O_23 
REMARK   15  A    between atoms: C_19  and  C_21 
REMARK   16  A    between atoms: C_21  and  O_22 
REMARK   17  A    between atoms: O_26  and  C_27 
REMARK   18  A    between atoms: C_28  and  O_36 
REMARK   19  A    between atoms: C_29  and  O_35 
REMARK   20  A    between atoms: C_30  and  O_34 
REMARK   21  A    between atoms: C_31  and  C_33 
REMARK   22  A    between atoms: C_33  and  N_58 
ROOT
ATOM      1  C   UNL d   1       1.116   2.351   7.385  0.00  0.00     0.063 C 
ATOM      2  C   UNL d   1       1.908   3.534   7.945  0.00  0.00     0.217 C 
ATOM      3  C   UNL d   1       2.985   3.949   6.940  0.00  0.00     0.186 C 
ATOM      4  C   UNL d   1       2.322   4.357   5.622  0.00  0.00     0.180 C 
ATOM      5  C   UNL d   1       1.530   3.174   5.062  0.00  0.00     0.178 C 
ATOM      6  C   UNL d   1       0.454   2.759   6.067  0.00  0.00     0.118 C 
ENDROOT
BRANCH   3   7
ATOM      7  O   UNL d   1       3.725   5.054   7.463  0.00  0.00    -0.349 OA
BRANCH   7   8
ATOM      8  C   UNL d   1       5.083   5.106   7.021  0.00  0.00     0.292 C 
ATOM      9  O   UNL d   1       5.120   5.444   5.633  0.00  0.00    -0.349 OA
ATOM     10  C   UNL d   1       6.437   5.498   5.081  0.00  0.00     0.181 C 
ATOM     11  C   UNL d   1       7.249   6.574   5.806  0.00  0.00     0.180 C 
ATOM     12  C   UNL d   1       7.279   6.257   7.304  0.00  0.00     0.183 C 
ATOM     13  C   UNL d   1       5.841   6.166   7.824  0.00  0.00     0.204 C 
BRANCH  10  14
ATOM     14  C   UNL d   1       6.352   5.839   3.592  0.00  0.00     0.264 C 
BRANCH  14  15
ATOM     15  N   UNL d   1       5.585   4.787   2.901  0.00  0.00    -0.077 N 
ATOM     16  H   UNL d   1       4.656   4.705   3.311  0.00  0.00     0.274 HD
ATOM     17  H   UNL d   1       5.500   5.010   1.911  0.00  0.00     0.274 HD
ATOM     18  H   UNL d   1       6.076   3.891   3.001  0.00  0.00     0.274 HD
ENDBRANCH  14  15
ENDBRANCH  10  14
BRANCH  11  19
ATOM     19  O   UNL d   1       6.642   7.851   5.599  0.00  0.00    -0.390 OA
ATOM     20  H   UNL d   1       7.106   8.581   6.032  0.00  0.00     0.210 HD
ENDBRANCH  11  19
BRANCH  12  21
ATOM     21  O   UNL d   1       7.973   7.295   7.998  0.00  0.00    -0.390 OA
ATOM     22  H   UNL d   1       8.030   7.160   8.954  0.00  0.00     0.210 HD
ENDBRANCH  12  21
BRANCH  13  23
ATOM     23  O   UNL d   1       5.197   7.432   7.671  0.00  0.00    -0.388 OA
ATOM     24  H   UNL d   1       4.279   7.446   7.976  0.00  0.00     0.210 HD
ENDBRANCH  13  23
ENDBRANCH   7   8
ENDBRANCH   3   7
BRANCH   2  25
ATOM     25  N   UNL d   1       2.555   3.165   9.216  0.00  0.00    -0.072 N 
ATOM     26  H   UNL d   1       1.854   2.864   9.891  0.00  0.00     0.274 HD
ATOM     27  H   UNL d   1       3.223   2.410   9.062  0.00  0.00     0.274 HD
ATOM     28  H   UNL d   1       3.053   3.981   9.591  0.00  0.00     0.274 HD
ENDBRANCH   2  25
BRANCH   4  29
ATOM     29  O   UNL d   1       1.438   5.455   5.854  0.00  0.00    -0.390 OA
ATOM     30  H   UNL d   1       1.873   6.242   6.210  0.00  0.00     0.210 HD
ENDBRANCH   4  29
BRANCH   5  31
ATOM     31  O   UNL d   1       0.911   3.555   3.832  0.00  0.00    -0.349 OA
BRANCH  31  32
ATOM     32  C   UNL d   1       1.717   3.312   2.676  0.00  0.00     0.291 C 
ATOM     33  O   UNL d   1       1.818   1.904   2.454  0.00  0.00    -0.349 OA
ATOM     34  C   UNL d   1       2.628   1.548   1.331  0.00  0.00     0.179 C 
ATOM     35  C   UNL d   1       2.021   2.140   0.057  0.00  0.00     0.182 C 
ATOM     36  C   UNL d   1       1.910   3.660   0.213  0.00  0.00     0.247 C 
ATOM     37  C   UNL d   1       1.073   3.975   1.456  0.00  0.00     0.206 C 
BRANCH  34  38
ATOM     38  C   UNL d   1       2.687   0.024   1.208  0.00  0.00     0.198 C 
BRANCH  38  39
ATOM     39  O   UNL d   1       3.358  -0.521   2.345  0.00  0.00    -0.398 OA
ATOM     40  H   UNL d   1       3.433  -1.485   2.334  0.00  0.00     0.209 HD
ENDBRANCH  38  39
ENDBRANCH  34  38
BRANCH  35  41
ATOM     41  O   UNL d   1       0.721   1.586  -0.155  0.00  0.00    -0.391 OA
ATOM     42  H   UNL d   1       0.715   0.624  -0.257  0.00  0.00     0.210 HD
ENDBRANCH  35  41
BRANCH  36  43
ATOM     43  N   UNL d   1       1.236   4.218  -0.973  0.00  0.00    -0.070 N 
ATOM     44  H   UNL d   1       1.175   5.232  -0.895  0.00  0.00     0.274 HD
ATOM     45  H   UNL d   1       1.754   3.974  -1.816  0.00  0.00     0.274 HD
ATOM     46  H   UNL d   1       0.288   3.829  -1.038  0.00  0.00     0.274 HD
ENDBRANCH  36  43
BRANCH  37  47
ATOM     47  O   UNL d   1      -0.252   3.470   1.281  0.00  0.00    -0.388 OA
ATOM     48  H   UNL d   1      -0.837   3.630   2.034  0.00  0.00     0.210 HD
ENDBRANCH  37  47
ENDBRANCH  31  32
ENDBRANCH   5  31
BRANCH   6  49
ATOM     49  N   UNL d   1      -0.453   3.885   6.305  0.00  0.00    -0.352 N 
ATOM     50  C   UNL d   1      -1.542   4.049   5.528  0.00  0.00     0.246 C 
ATOM     51  O   UNL d   1      -1.772   3.264   4.633  0.00  0.00    -0.271 OA
ATOM     52  H   UNL d   1      -0.269   4.513   7.021  0.00  0.00     0.163 HD
BRANCH  50  53
ATOM     53  C   UNL d   1      -2.474   5.207   5.772  0.00  0.00     0.211 C 
BRANCH  53  54
ATOM     54  C   UNL d   1      -1.740   6.520   5.493  0.00  0.00     0.068 C 
BRANCH  54  55
ATOM     55  C   UNL d   1      -2.645   7.698   5.859  0.00  0.00     0.232 C 
BRANCH  55  56
ATOM     56  N   UNL d   1      -1.921   8.957   5.607  0.00  0.00    -0.079 N 
ATOM     57  H   UNL d   1      -1.635   9.005   4.630  0.00  0.00     0.274 HD
ATOM     58  H   UNL d   1      -2.518   9.753   5.825  0.00  0.00     0.274 HD
ATOM     59  H   UNL d   1      -1.086   8.991   6.203  0.00  0.00     0.274 HD
ENDBRANCH  55  56
ENDBRANCH  54  55
ENDBRANCH  53  54
BRANCH  53  60
ATOM     60  O   UNL d   1      -3.605   5.100   4.905  0.00  0.00    -0.386 OA
ATOM     61  H   UNL d   1      -3.381   5.107   3.964  0.00  0.00     0.210 HD
ENDBRANCH  53  60
ENDBRANCH  50  53
ENDBRANCH   6  49
TORSDOF 22
