REMARK  9 active torsions:
REMARK  status: ('A' for Active; 'I' for Inactive)
REMARK    1  A    between atoms: C_2  and  C_3 
REMARK    2  A    between atoms: C_3  and  C_4 
REMARK    3  A    between atoms: C_4  and  C_5 
REMARK    4  A    between atoms: C_4  and  N_25 
REMARK    5  A    between atoms: C_5  and  O_7 
REMARK    6  A    between atoms: O_7  and  C_8 
REMARK    7  A    between atoms: CA_10  and  C_12 
REMARK    8  A    between atoms: CA_10  and  N_25 
REMARK       I    between atoms: C_12  and  N_14 
REMARK    9  A    between atoms: CA_22  and  C_23 
ROOT
ATOM      1  CA  UNL d   1      -2.840   1.475  -1.378  0.00  0.00     0.274 C 
ATOM      2  CB  UNL d   1      -1.608   2.104  -2.031  0.00  0.00     0.050 C 
ENDROOT
BRANCH   1   3
ATOM      3  C   UNL d   1      -4.079   1.920  -2.112  0.00  0.00     0.251 C 
ATOM      4  O   UNL d   1      -4.730   1.116  -2.746  0.00  0.00    -0.271 OA
ATOM      5  N   UNL d   1      -4.464   3.210  -2.064  0.00  0.00    -0.331 N 
ATOM      6  CA  UNL d   1      -5.693   3.771  -2.654  0.00  0.00     0.189 C 
ATOM      7  C   UNL d   1      -3.732   4.305  -1.421  0.00  0.00     0.092 C 
ATOM      8  C   UNL d   1      -5.721   5.276  -2.305  0.00  0.00     0.043 C 
ATOM      9  C   UNL d   1      -4.795   5.356  -1.052  0.00  0.00     0.011 C 
ATOM     10  C   UNL d   1      -5.631   4.881   0.139  0.00  0.00     0.007 C 
ATOM     11  C   UNL d   1      -4.732   4.524   1.320  0.00  0.00     0.001 C 
ATOM     12  C   UNL d   1      -3.813   3.369   0.906  0.00  0.00     0.002 C 
ATOM     13  C   UNL d   1      -2.915   3.851  -0.233  0.00  0.00     0.026 C 
BRANCH   6  14
ATOM     14  C   UNL d   1      -6.902   3.089  -2.066  0.00  0.00     0.197 C 
ATOM     15  O   UNL d   1      -6.773   2.325  -1.138  0.00  0.00    -0.646 OA
ATOM     16  OXT UNL d   1      -8.121   3.330  -2.572  0.00  0.00    -0.646 OA
ENDBRANCH   6  14
ENDBRANCH   1   3
BRANCH   1  17
ATOM     17  N   UNL d   1      -2.738   0.005  -1.447  0.00  0.00    -0.049 N 
ATOM     18  H1  UNL d   1      -3.677  -0.403  -1.371  0.00  0.00     0.279 HD
ATOM     19  H2  UNL d   1      -2.320  -0.264  -2.345  0.00  0.00     0.279 HD
BRANCH  17  20
ATOM     20  C   UNL d   1      -1.897  -0.502  -0.347  0.00  0.00     0.285 C 
BRANCH  20  21
ATOM     21  C   UNL d   1      -1.270  -1.833  -0.767  0.00  0.00     0.043 C 
BRANCH  21  22
ATOM     22  C   UNL d   1      -0.369  -1.611  -1.983  0.00  0.00    -0.002 C 
ATOM     23  C   UNL d   1       0.354  -2.915  -2.327  0.00  0.00     0.005 C 
ENDBRANCH  21  22
ENDBRANCH  20  21
BRANCH  20  24
ATOM     24  C   UNL d   1      -2.745  -0.711   0.881  0.00  0.00     0.289 C 
ATOM     25  O   UNL d   1      -3.926  -0.459   0.849  0.00  0.00    -0.263 OA
BRANCH  24  26
ATOM     26  O   UNL d   1      -2.189  -1.178   2.010  0.00  0.00    -0.320 OA
BRANCH  26  27
ATOM     27  C   UNL d   1      -3.067  -1.355   3.153  0.00  0.00     0.174 C 
ATOM     28  C   UNL d   1      -2.260  -1.890   4.337  0.00  0.00     0.034 C 
ENDBRANCH  26  27
ENDBRANCH  24  26
ENDBRANCH  20  24
ENDBRANCH  17  20
ENDBRANCH   1  17
TORSDOF 9
