REMARK  9 active torsions:
REMARK  status: ('A' for Active; 'I' for Inactive)
REMARK    1  A    between atoms: C_2  and  O_36 
REMARK    2  A    between atoms: C_7  and  O_35 
REMARK    3  A    between atoms: C_12  and  O_34 
REMARK    4  A    between atoms: C_13  and  O_33 
REMARK    5  A    between atoms: C_17  and  N_45 
REMARK    6  A    between atoms: C_18  and  O_30 
REMARK    7  A    between atoms: C_19  and  C_22 
REMARK       I    between atoms: C_22  and  N_24 
REMARK    8  A    between atoms: N_24  and  C_25 
REMARK    9  A    between atoms: C_25  and  N_43 
ROOT
ATOM      1  C   UNL d   1       2.359  -0.471  -2.277  0.00  0.00     0.052 C 
ATOM      2  C   UNL d   1       2.631  -0.264  -0.786  0.00  0.00     0.090 C 
ATOM      3  C   UNL d   1       2.775   1.208  -0.507  0.00  0.00    -0.007 A 
ATOM      4  C   UNL d   1       4.025   1.790  -0.490  0.00  0.00     0.011 A 
ATOM      5  C   UNL d   1       4.159   3.148  -0.251  0.00  0.00     0.003 A 
ATOM      6  C   UNL d   1       3.045   3.933  -0.028  0.00  0.00     0.037 A 
ATOM      7  C   UNL d   1       1.781   3.363  -0.035  0.00  0.00     0.080 A 
ATOM      8  C   UNL d   1       1.644   1.989  -0.269  0.00  0.00     0.057 A 
ATOM      9  C   UNL d   1       0.310   1.357  -0.260  0.00  0.00     0.194 C 
ATOM     10  O   UNL d   1      -0.700   2.035  -0.328  0.00  0.00    -0.287 OA
ATOM     11  C   UNL d   1       0.227  -0.065  -0.177  0.00  0.00     0.033 C 
ATOM     12  C   UNL d   1      -0.992  -0.628  -0.263  0.00  0.00     0.097 C 
ATOM     13  C   UNL d   1      -1.126  -2.134  -0.179  0.00  0.00     0.177 C 
ATOM     14  C   UNL d   1       0.061  -2.727  -0.960  0.00  0.00     0.073 C 
ATOM     15  C   UNL d   1       1.357  -2.336  -0.259  0.00  0.00     0.024 C 
ATOM     16  C   UNL d   1       1.478  -0.856   0.025  0.00  0.00     0.065 C 
ATOM     17  C   UNL d   1      -0.056  -4.252  -0.965  0.00  0.00     0.252 C 
ATOM     18  C   UNL d   1      -1.396  -4.702  -1.462  0.00  0.00     0.094 C 
ATOM     19  C   UNL d   1      -2.504  -3.890  -1.428  0.00  0.00     0.112 C 
ATOM     20  C   UNL d   1      -2.395  -2.526  -0.909  0.00  0.00     0.208 C 
ATOM     21  O   UNL d   1      -3.298  -1.729  -1.060  0.00  0.00    -0.288 OA
ENDROOT
BRANCH  19  22
ATOM     22  C   UNL d   1      -3.799  -4.393  -1.913  0.00  0.00     0.259 C 
ATOM     23  O   UNL d   1      -4.664  -4.710  -1.119  0.00  0.00    -0.267 OA
ATOM     24  N   UNL d   1      -4.027  -4.501  -3.237  0.00  0.00    -0.333 N 
ATOM     25  H   UNL d   1      -3.314  -4.317  -3.868  0.00  0.00     0.164 HD
BRANCH  24  26
ATOM     26  C   UNL d   1      -5.351  -4.896  -3.723  0.00  0.00     0.359 C 
BRANCH  26  27
ATOM     27  N   UNL d   1      -6.145  -3.676  -4.059  0.00  0.00    -0.055 N 
ATOM     28  C   UNL d   1      -5.276  -2.645  -4.648  0.00  0.00     0.237 C 
ATOM     29  C   UNL d   1      -6.293  -1.731  -5.376  0.00  0.00     0.029 C 
ATOM     30  C   UNL d   1      -7.330  -2.737  -5.926  0.00  0.00     0.029 C 
ATOM     31  C   UNL d   1      -7.177  -3.993  -5.047  0.00  0.00     0.237 C 
ATOM     32  H   UNL d   1      -6.583  -3.313  -3.204  0.00  0.00     0.281 HD
ENDBRANCH  26  27
ENDBRANCH  24  26
ENDBRANCH  19  22
BRANCH  18  33
ATOM     33  O   UNL d   1      -1.519  -5.942  -1.958  0.00  0.00    -0.362 OA
ATOM     34  H   UNL d   1      -2.464  -6.093  -2.246  0.00  0.00     0.217 HD
ENDBRANCH  18  33
BRANCH  17  35
ATOM     35  N   UNL d   1       1.014  -4.798  -1.826  0.00  0.00    -0.068 N 
ATOM     36  C   UNL d   1       1.146  -6.254  -1.606  0.00  0.00     0.270 C 
ATOM     37  C   UNL d   1       0.707  -4.528  -3.246  0.00  0.00     0.270 C 
ATOM     38  H   UNL d   1       1.902  -4.343  -1.584  0.00  0.00     0.279 HD
ENDBRANCH  17  35
BRANCH  13  39
ATOM     39  O   UNL d   1      -1.141  -2.598   1.173  0.00  0.00    -0.374 OA
ATOM     40  H   UNL d   1      -1.873  -2.248   1.700  0.00  0.00     0.211 HD
ENDBRANCH  13  39
BRANCH  12  41
ATOM     41  O   UNL d   1      -2.086   0.142  -0.422  0.00  0.00    -0.361 OA
ATOM     42  H   UNL d   1      -2.899  -0.438  -0.466  0.00  0.00     0.217 HD
ENDBRANCH  12  41
BRANCH   2  43
ATOM     43  O   UNL d   1       3.845  -0.930  -0.432  0.00  0.00    -0.385 OA
ATOM     44  H   UNL d   1       4.623  -0.608  -0.907  0.00  0.00     0.211 HD
ENDBRANCH   2  43
BRANCH   7  45
ATOM     45  O   UNL d   1       0.684   4.131   0.184  0.00  0.00    -0.360 OA
ATOM     46  H   UNL d   1       0.301   4.508  -0.620  0.00  0.00     0.217 HD
ENDBRANCH   7  45
TORSDOF 9
