REMARK  5 active torsions:
REMARK  status: ('A' for Active; 'I' for Inactive)
REMARK    1  A    between atoms: CA_3  and  C_23 
REMARK    2  A    between atoms: CA_7  and  N_10 
REMARK       I    between atoms: N_10  and  C_11 
REMARK    3  A    between atoms: C_11  and  C_13 
REMARK    4  A    between atoms: C_14  and  O_21 
REMARK    5  A    between atoms: C_18  and  O_19 
ROOT
ATOM      1  N   UNL d   1      -0.068   5.994   1.200  0.00  0.00    -0.342 N 
ATOM      2  C   UNL d   1      -0.070   5.326   0.030  0.00  0.00     0.258 C 
ATOM      3  O   UNL d   1      -0.089   5.939  -1.020  0.00  0.00    -0.267 OA
ATOM      4  H   UNL d   1      -0.053   5.505   2.038  0.00  0.00     0.163 HD
ENDROOT
BRANCH   1   5
ATOM      5  CA  UNL d   1      -0.088   7.459   1.207  0.00  0.00     0.199 C 
ATOM      6  C   UNL d   1       0.508   8.077   2.474  0.00  0.00     0.160 C 
ATOM      7  N   UNL d   1      -0.879   8.425   2.865  0.00  0.00    -0.219 NA
ATOM      8  S   UNL d   1       1.041   6.847   3.731  0.00  0.00    -0.135 SA
ATOM      9  CA  UNL d   1      -1.404   7.724   4.041  0.00  0.00     0.186 C 
ATOM     10  C   UNL d   1      -1.407   8.049   1.659  0.00  0.00     0.227 C 
ATOM     11  C   UNL d   1      -0.268   7.286   5.006  0.00  0.00     0.029 C 
ATOM     12  C   UNL d   1       0.192   8.443   5.895  0.00  0.00     0.029 C 
ATOM     13  C   UNL d   1      -0.676   6.070   5.840  0.00  0.00     0.029 C 
ATOM     14  O   UNL d   1      -2.504   8.149   1.151  0.00  0.00    -0.277 OA
BRANCH   9  15
ATOM     15  C   UNL d   1      -2.349   8.638   4.777  0.00  0.00     0.193 C 
ATOM     16  O   UNL d   1      -2.312   9.830   4.580  0.00  0.00    -0.647 OA
ATOM     17  OXT UNL d   1      -3.230   8.129   5.652  0.00  0.00    -0.647 OA
ENDBRANCH   9  15
ENDBRANCH   1   5
BRANCH   2  18
ATOM     18  C   UNL d   1      -0.050   3.853   0.023  0.00  0.00     0.098 A 
ATOM     19  C   UNL d   1      -1.252   3.131   0.031  0.00  0.00     0.086 A 
ATOM     20  C   UNL d   1      -1.222   1.746   0.017  0.00  0.00     0.038 A 
ATOM     21  C   UNL d   1      -0.013   1.076   0.008  0.00  0.00     0.005 A 
ATOM     22  C   UNL d   1       1.178   1.778   0.000  0.00  0.00     0.038 A 
ATOM     23  C   UNL d   1       1.171   3.164   0.007  0.00  0.00     0.086 A 
BRANCH  19  24
ATOM     24  O   UNL d   1      -2.440   3.785   0.045  0.00  0.00    -0.355 OA
ATOM     25  C   UNL d   1      -3.623   2.984   0.053  0.00  0.00     0.210 C 
ENDBRANCH  19  24
BRANCH  23  26
ATOM     26  O   UNL d   1       2.341   3.851  -0.000  0.00  0.00    -0.355 OA
ATOM     27  C   UNL d   1       3.545   3.081  -0.015  0.00  0.00     0.210 C 
ENDBRANCH  23  26
ENDBRANCH   2  18
TORSDOF 5
