REMARK  4 active torsions:
REMARK  status: ('A' for Active; 'I' for Inactive)
REMARK    1  A    between atoms: C_2  and  C_3 
REMARK    2  A    between atoms: C_2  and  C_7 
REMARK    3  A    between atoms: C_3  and  C_4 
REMARK    4  A    between atoms: C_4  and  C_5 
ROOT
ATOM      1  C   UNL d   1       1.711  -0.052   6.431  0.00  0.00     0.005 C 
ATOM      2  C   UNL d   1       2.041   1.107   7.406  0.00  0.00     0.006 C 
ATOM      3  C   UNL d   1       1.714   2.426   6.651  0.00  0.00     0.007 C 
ATOM      4  C   UNL d   1       0.802   1.955   5.517  0.00  0.00     0.013 C 
ATOM      5  C   UNL d   1       1.483   0.640   5.080  0.00  0.00     0.025 C 
ATOM      6  C   UNL d   1       0.606  -0.084   4.110  0.00  0.00     0.136 C 
ATOM      7  O   UNL d   1       0.633  -1.295   3.981  0.00  0.00    -0.297 OA
ATOM      8  C   UNL d   1      -0.324   0.780   3.257  0.00  0.00     0.085 C 
ATOM      9  C   UNL d   1       0.349   2.133   3.058  0.00  0.00     0.013 C 
ATOM     10  C   UNL d   1       0.482   2.870   4.393  0.00  0.00     0.066 C 
ATOM     11  C   UNL d   1       1.397   4.051   4.193  0.00  0.00     0.132 C 
ATOM     12  O   UNL d   1       2.249   4.381   4.973  0.00  0.00    -0.298 OA
ATOM     13  C   UNL d   1       1.159   4.833   2.901  0.00  0.00     0.084 C 
ATOM     14  C   UNL d   1      -0.253   4.480   2.443  0.00  0.00     0.008 C 
ATOM     15  C   UNL d   1      -0.358   3.012   2.040  0.00  0.00    -0.035 C 
ATOM     16  C   UNL d   1      -1.821   2.635   1.847  0.00  0.00     0.017 C 
ATOM     17  C   UNL d   1      -2.438   3.480   0.727  0.00  0.00     0.079 C 
ATOM     18  C   UNL d   1      -2.149   4.944   0.953  0.00  0.00     0.127 C 
ATOM     19  O   UNL d   1      -3.031   5.764   0.841  0.00  0.00    -0.298 OA
ATOM     20  C   UNL d   1      -0.745   5.384   1.318  0.00  0.00     0.084 C 
ATOM     21  C   UNL d   1       0.372   2.806   0.712  0.00  0.00     0.016 C 
ATOM     22  C   UNL d   1       2.858   0.902   4.453  0.00  0.00     0.024 C 
ENDROOT
BRANCH   1  23
ATOM     23  C   UNL d   1       0.454  -0.788   6.889  0.00  0.00    -0.013 C 
ATOM     24  C   UNL d   1       0.698  -1.403   8.269  0.00  0.00     0.010 C 
BRANCH  23  25
ATOM     25  C   UNL d   1      -0.713   0.197   6.969  0.00  0.00     0.015 C 
BRANCH  25  26
ATOM     26  C   UNL d   1      -1.898  -0.472   7.669  0.00  0.00     0.113 C 
BRANCH  26  27
ATOM     27  C   UNL d   1      -3.048   0.499   7.747  0.00  0.00     0.172 C 
ATOM     28  O   UNL d   1      -2.932   1.611   7.291  0.00  0.00    -0.648 OA
ATOM     29  O   UNL d   1      -4.202   0.128   8.325  0.00  0.00    -0.648 OA
ENDBRANCH  26  27
ENDBRANCH  25  26
ENDBRANCH  23  25
ENDBRANCH   1  23
TORSDOF 4
