REMARK  8 active torsions:
REMARK  status: ('A' for Active; 'I' for Inactive)
REMARK    1  A    between atoms: C_2  and  N_21 
REMARK    2  A    between atoms: C_3  and  N_21 
REMARK    3  A    between atoms: C_5  and  C_6 
REMARK    4  A    between atoms: C_5  and  N_21 
REMARK    5  A    between atoms: C_6  and  O_7 
REMARK    6  A    between atoms: O_7  and  C_8 
REMARK    7  A    between atoms: C_8  and  C_10 
REMARK    8  A    between atoms: C_10  and  C_15 
ROOT
ATOM      1  C   UNL d   1      -0.149   1.578  -0.261  0.00  0.00     0.075 C 
ATOM      2  C   UNL d   1      -1.062   2.019  -1.419  0.00  0.00     0.025 C 
ATOM      3  C   UNL d   1      -0.177   2.819  -2.397  0.00  0.00     0.002 C 
ATOM      4  C   UNL d   1       1.258   2.312  -2.114  0.00  0.00     0.002 C 
ATOM      5  C   UNL d   1       1.258   2.127  -0.577  0.00  0.00     0.025 C 
ENDROOT
BRANCH   1   6
ATOM      6  C   UNL d   1      -0.110   0.074  -0.178  0.00  0.00     0.272 C 
ATOM      7  O   UNL d   1       0.948  -0.507  -0.232  0.00  0.00    -0.264 OA
BRANCH   6   8
ATOM      8  O   UNL d   1      -1.251  -0.620  -0.044  0.00  0.00    -0.319 OA
BRANCH   8   9
ATOM      9  C   UNL d   1      -1.131  -2.055   0.141  0.00  0.00     0.206 C 
BRANCH   9  10
ATOM     10  C   UNL d   1      -2.517  -2.655   0.389  0.00  0.00     0.261 C 
BRANCH  10  11
ATOM     11  N   UNL d   1      -3.348  -2.438  -0.813  0.00  0.00    -0.070 N 
ATOM     12  H   UNL d   1      -3.179  -1.490  -1.169  0.00  0.00     0.279 HD
BRANCH  11  13
ATOM     13  C   UNL d   1      -2.987  -3.416  -1.861  0.00  0.00     0.230 C 
ATOM     14  C   UNL d   1      -3.696  -3.031  -3.161  0.00  0.00     0.034 C 
ENDBRANCH  11  13
BRANCH  11  15
ATOM     15  C   UNL d   1      -4.779  -2.572  -0.469  0.00  0.00     0.230 C 
ATOM     16  C   UNL d   1      -5.241  -1.286   0.218  0.00  0.00     0.034 C 
ENDBRANCH  11  15
ENDBRANCH  10  11
ENDBRANCH   9  10
ENDBRANCH   8   9
ENDBRANCH   6   8
ENDBRANCH   1   6
BRANCH   1  17
ATOM     17  C   UNL d   1      -0.648   2.154   1.039  0.00  0.00    -0.040 A 
ATOM     18  C   UNL d   1      -0.881   3.512   1.149  0.00  0.00     0.008 A 
ATOM     19  C   UNL d   1      -1.339   4.041   2.341  0.00  0.00     0.001 A 
ATOM     20  C   UNL d   1      -1.564   3.211   3.424  0.00  0.00     0.000 A 
ATOM     21  C   UNL d   1      -1.331   1.853   3.314  0.00  0.00     0.001 A 
ATOM     22  C   UNL d   1      -0.878   1.324   2.119  0.00  0.00     0.008 A 
ENDBRANCH   1  17
TORSDOF 8
