REMARK  3 active torsions:
REMARK  status: ('A' for Active; 'I' for Inactive)
REMARK    1  A    between atoms: C_6  and  N_9 
REMARK    2  A    between atoms: N_9  and  C_10 
REMARK    3  A    between atoms: C_15  and  C_16 
ROOT
ATOM      1  N   UNL d   1       0.068  -0.001  -0.044  0.00  0.00    -0.355 N 
ATOM      2  H   UNL d   1       0.921  -0.452  -0.137  0.00  0.00     0.166 HD
ENDROOT
BRANCH   1   3
ATOM      3  C   UNL d   1      -1.110  -0.748   0.053  0.00  0.00     0.039 A 
ATOM      4  C   UNL d   1      -2.341  -0.105   0.075  0.00  0.00     0.030 A 
ATOM      5  C   UNL d   1      -3.503  -0.846   0.171  0.00  0.00     0.003 A 
ATOM      6  C   UNL d   1      -3.441  -2.225   0.244  0.00  0.00     0.007 A 
ATOM      7  C   UNL d   1      -2.217  -2.868   0.223  0.00  0.00    -0.054 A 
ATOM      8  C   UNL d   1      -2.155  -4.372   0.303  0.00  0.00     0.049 C 
ATOM      9  C   UNL d   1      -1.052  -2.134   0.121  0.00  0.00    -0.029 A 
ATOM     10  C   UNL d   1       0.282  -2.836   0.091  0.00  0.00     0.051 C 
ENDBRANCH   1   3
BRANCH   1  11
ATOM     11  C   UNL d   1       0.015   1.386  -0.007  0.00  0.00     0.049 A 
ATOM     12  C   UNL d   1      -0.119   2.055   1.221  0.00  0.00     0.067 A 
ATOM     13  C   UNL d   1      -0.170   3.452   1.243  0.00  0.00     0.021 A 
ATOM     14  C   UNL d   1      -0.089   4.161   0.065  0.00  0.00     0.001 A 
ATOM     15  C   UNL d   1       0.043   3.498  -1.145  0.00  0.00     0.002 A 
ATOM     16  C   UNL d   1       0.101   2.120  -1.184  0.00  0.00     0.030 A 
BRANCH  12  17
ATOM     17  C   UNL d   1      -0.205   1.290   2.476  0.00  0.00     0.211 C 
ATOM     18  O   UNL d   1      -0.098   0.080   2.459  0.00  0.00    -0.644 OA
ATOM     19  O   UNL d   1      -0.404   1.932   3.644  0.00  0.00    -0.644 OA
ENDBRANCH  12  17
ENDBRANCH   1  11
TORSDOF 3
