REMARK  1 active torsions:
REMARK  status: ('A' for Active; 'I' for Inactive)
REMARK    1  A    between atoms: C_18  and  O_20 
ROOT
ATOM      1  C   UNL d   1       2.022   1.660  -1.419  0.00  0.00     0.024 C 
ATOM      2  C   UNL d   1       1.486   1.875  -0.002  0.00  0.00     0.021 C 
ATOM      3  C   UNL d   1       1.790   3.297   0.411  0.00  0.00     0.018 C 
ATOM      4  C   UNL d   1       1.155   3.628   1.761  0.00  0.00     0.007 C 
ATOM      5  C   UNL d   1      -0.363   3.443   1.642  0.00  0.00     0.003 C 
ATOM      6  C   UNL d   1      -0.654   1.978   1.334  0.00  0.00    -0.001 C 
ATOM      7  C   UNL d   1      -0.019   1.554   0.011  0.00  0.00     0.006 C 
ATOM      8  C   UNL d   1       0.002  -0.004   0.002  0.00  0.00     0.013 C 
ATOM      9  C   UNL d   1       1.194  -0.352   0.920  0.00  0.00     0.079 C 
ATOM     10  C   UNL d   1       2.117   0.854   0.914  0.00  0.00     0.135 C 
ATOM     11  O   UNL d   1       3.153   0.972   1.523  0.00  0.00    -0.297 OA
ATOM     12  C   UNL d   1      -0.090   1.122   2.475  0.00  0.00     0.033 C 
ATOM     13  C   UNL d   1      -0.748   1.557   3.756  0.00  0.00    -0.023 C 
ATOM     14  C   UNL d   1      -1.173   2.773   3.940  0.00  0.00    -0.072 C 
ATOM     15  C   UNL d   1      -1.034   3.875   2.931  0.00  0.00    -0.017 C 
ATOM     16  C   UNL d   1      -2.412   4.480   2.655  0.00  0.00     0.016 C 
ATOM     17  C   UNL d   1      -3.033   4.934   3.979  0.00  0.00     0.033 C 
ATOM     18  C   UNL d   1      -3.236   3.731   4.900  0.00  0.00     0.122 C 
ATOM     19  C   UNL d   1      -1.880   3.107   5.244  0.00  0.00     0.066 C 
ATOM     20  C   UNL d   1      -0.167   4.962   3.569  0.00  0.00     0.020 C 
ENDROOT
BRANCH  18  21
ATOM     21  O   UNL d   1      -3.881   4.157   6.102  0.00  0.00    -0.395 OA
ATOM     22  H   UNL d   1      -4.043   3.445   6.736  0.00  0.00     0.210 HD
ENDBRANCH  18  21
TORSDOF 1
