REMARK  3 active torsions:
REMARK  status: ('A' for Active; 'I' for Inactive)
REMARK    1  A    between atoms: C_2  and  C_4 
REMARK    2  A    between atoms: C_4  and  O_25 
REMARK    3  A    between atoms: O_25  and  C_26 
ROOT
ATOM      1  C   UNL d   1      -2.959   2.067   0.194  0.00  0.00     0.138 C 
ATOM      2  C   UNL d   1      -2.389   3.485  -0.016  0.00  0.00     0.048 C 
ATOM      3  C   UNL d   1      -1.359   3.714   1.112  0.00  0.00     0.009 C 
ATOM      4  C   UNL d   1      -0.922   2.275   1.516  0.00  0.00     0.005 C 
ATOM      5  C   UNL d   1      -2.258   1.512   1.441  0.00  0.00    -0.001 C 
ATOM      6  C   UNL d   1      -2.081   0.012   1.392  0.00  0.00     0.013 C 
ATOM      7  C   UNL d   1      -1.130  -0.399   0.268  0.00  0.00     0.007 C 
ATOM      8  C   UNL d   1       0.226   0.276   0.511  0.00  0.00     0.006 C 
ATOM      9  C   UNL d   1       0.037   1.789   0.427  0.00  0.00     0.020 C 
ATOM     10  C   UNL d   1       1.362   2.484   0.578  0.00  0.00     0.003 C 
ATOM     11  C   UNL d   1       2.499   1.911   0.188  0.00  0.00     0.037 C 
ATOM     12  C   UNL d   1       2.507   0.574  -0.403  0.00  0.00    -0.025 C 
ATOM     13  C   UNL d   1       3.680   0.015  -0.785  0.00  0.00     0.059 C 
ATOM     14  C   UNL d   1       3.737  -1.275  -1.337  0.00  0.00     0.149 C 
ATOM     15  O   UNL d   1       4.808  -1.735  -1.679  0.00  0.00    -0.293 OA
ATOM     16  C   UNL d   1       2.485  -2.095  -1.510  0.00  0.00     0.084 C 
ATOM     17  C   UNL d   1       1.463  -1.675  -0.448  0.00  0.00     0.022 C 
ATOM     18  C   UNL d   1       1.208  -0.172  -0.575  0.00  0.00    -0.010 C 
ATOM     19  C   UNL d   1       0.619   0.132  -1.954  0.00  0.00     0.021 C 
ATOM     20 CL   UNL d   1       3.997   2.766   0.386  0.00  0.00    -0.084 Cl
ATOM     21  C   UNL d   1      -3.083   1.876   2.677  0.00  0.00     0.019 C 
ENDROOT
BRANCH   1  22
ATOM     22  C   UNL d   1      -2.654   1.202  -1.001  0.00  0.00     0.158 C 
ATOM     23  C   UNL d   1      -3.495  -0.016  -1.284  0.00  0.00     0.094 C 
ATOM     24  O   UNL d   1      -1.736   1.484  -1.733  0.00  0.00    -0.295 OA
ENDBRANCH   1  22
BRANCH   1  25
ATOM     25  O   UNL d   1      -4.393   2.130   0.413  0.00  0.00    -0.302 OA
BRANCH  25  26
ATOM     26  C   UNL d   1      -5.150   2.530  -0.621  0.00  0.00     0.256 C 
ATOM     27  O   UNL d   1      -4.627   2.915  -1.639  0.00  0.00    -0.266 OA
ATOM     28  C   UNL d   1      -6.653   2.499  -0.510  0.00  0.00     0.126 C 
ENDBRANCH  25  26
ENDBRANCH   1  25
TORSDOF 3
