REMARK  0 active torsions:
REMARK  status: ('A' for Active; 'I' for Inactive)
ROOT
ATOM      1  C   UNL d   1       3.568   2.129   3.054  0.00  0.00     0.051 C 
ATOM      2  C   UNL d   1       3.221   2.374   1.584  0.00  0.00     0.179 C 
ATOM      3  O   UNL d   1       2.106   1.548   1.157  0.00  0.00    -0.362 OA
ATOM      4  C   UNL d   1       1.432   2.038  -0.001  0.00  0.00     0.098 C 
ATOM      5  C   UNL d   1       2.130   1.500  -1.256  0.00  0.00     0.274 C 
ATOM      6  C   UNL d   1       0.737  -0.482  -1.253  0.00  0.00     0.235 C 
ATOM      7  C   UNL d   1       0.002  -0.004   0.002  0.00  0.00     0.035 C 
ATOM      8  C   UNL d   1      -0.019   1.529   0.010  0.00  0.00     0.026 C 
ATOM      9  C   UNL d   1      -0.718   2.019  -1.263  0.00  0.00     0.035 C 
ATOM     10  C   UNL d   1       0.042   1.487  -2.482  0.00  0.00     0.235 C 
ATOM     11  C   UNL d   1       1.396   3.584  -0.093  0.00  0.00     0.116 C 
ATOM     12  S   UNL d   1       2.469   4.044   1.337  0.00  0.00    -0.135 SA
ATOM     13  N   UNL d   1       1.199   0.673  -2.053  0.00  0.00    -0.068 N 
ATOM     14  H   UNL d   1       1.690   0.327  -2.886  0.00  0.00     0.280 HD
ENDROOT
TORSDOF 0
