REMARK  6 active torsions:
REMARK  status: ('A' for Active; 'I' for Inactive)
REMARK    1  A    between atoms: C_4  and  C_17 
REMARK    2  A    between atoms: N_7  and  C1*_8 
REMARK    3  A    between atoms: C2*_9  and  O2*_16 
REMARK    4  A    between atoms: C3*_10  and  O3*_15 
REMARK    5  A    between atoms: C4*_11  and  C5*_13 
REMARK    6  A    between atoms: C5*_13  and  O5*_14 
REMARK       I    between atoms: C_17  and  N_19 
ROOT
ATOM      1  C   UNL d   1       0.659   3.186   4.494  0.00  0.00     0.205 A 
ATOM      2  N   UNL d   1       0.251   4.285   5.075  0.00  0.00    -0.332 N 
ATOM      3  HN  UNL d   1       0.338   4.514   6.065  1.00  0.00     0.168 HD
ATOM      4  C   UNL d   1      -0.305   5.057   4.123  0.00  0.00     0.190 A 
ATOM      5  N   UNL d   1      -0.219   4.413   2.979  0.00  0.00    -0.275 N 
ATOM      6  HN  UNL d   1      -0.557   4.753   2.079  1.00  0.00     0.189 HD
ATOM      7  N   UNL d   1       0.364   3.283   3.184  0.00  0.00    -0.254 N 
ENDROOT
BRANCH   7   8
ATOM      8  C1* UNL d   1       0.650   2.270   2.165  0.00  0.00     0.276 C 
ATOM      9  O4* UNL d   1       1.574   2.785   1.182  0.00  0.00    -0.352 OA
ATOM     10  C4* UNL d   1       1.419   1.984  -0.001  0.00  0.00     0.179 C 
ATOM     11  C3* UNL d   1      -0.017   1.425   0.010  0.00  0.00     0.182 C 
ATOM     12  C2* UNL d   1      -0.620   1.951   1.335  0.00  0.00     0.200 C 
BRANCH  10  13
ATOM     13  C5* UNL d   1       1.632   2.847  -1.246  0.00  0.00     0.198 C 
BRANCH  13  14
ATOM     14  O5* UNL d   1       2.997   3.265  -1.308  0.00  0.00    -0.398 OA
ATOM     15  H5* UNL d   1       3.205   3.817  -2.074  0.00  0.00     0.209 HD
ENDBRANCH  13  14
ENDBRANCH  10  13
BRANCH  11  16
ATOM     16  O3* UNL d   1       0.002  -0.004   0.002  0.00  0.00    -0.390 OA
ATOM     17  H3* UNL d   1      -0.876  -0.409   0.008  0.00  0.00     0.210 HD
ENDBRANCH  11  16
BRANCH  12  18
ATOM     18  O2* UNL d   1      -1.392   3.132   1.111  0.00  0.00    -0.388 OA
ATOM     19  H2* UNL d   1      -2.148   3.002   0.522  0.00  0.00     0.210 HD
ENDBRANCH  12  18
ENDBRANCH   7   8
BRANCH   4  20
ATOM     20  C   UNL d   1      -0.906   6.392   4.327  0.00  0.00     0.284 C 
ATOM     21  O   UNL d   1      -1.380   6.996   3.384  0.00  0.00    -0.265 OA
ATOM     22  N   UNL d   1      -0.929   6.940   5.558  0.00  0.00    -0.363 N 
ATOM     23  H   UNL d   1      -0.551   6.458   6.311  0.00  0.00     0.159 HD
ATOM     24  H   UNL d   1      -1.323   7.816   5.692  0.00  0.00     0.159 HD
ENDBRANCH   4  20
TORSDOF 6
