REMARK  9 active torsions:
REMARK  status: ('A' for Active; 'I' for Inactive)
REMARK    1  A    between atoms: O_2  and  C_3 
REMARK    2  A    between atoms: C_5  and  C_10 
REMARK    3  A    between atoms: C_8  and  O_9 
REMARK    4  A    between atoms: C_11  and  C_34 
REMARK    5  A    between atoms: C_16  and  C_20 
REMARK    6  A    between atoms: C_21  and  O_33 
REMARK    7  A    between atoms: C_25  and  O_32 
REMARK    8  A    between atoms: C_27  and  O_31 
REMARK    9  A    between atoms: C_34  and  O_35 
ROOT
ATOM      1  C   UNL d   1      -4.639  -3.962  -0.406  0.00  0.00     0.193 C 
ATOM      2  C   UNL d   1      -5.727  -2.902  -0.187  0.00  0.00     0.186 C 
ATOM      3  O   UNL d   1      -5.236  -1.947   0.761  0.00  0.00    -0.338 OA
ATOM      4  C   UNL d   1      -3.970  -1.487   0.567  0.00  0.00     0.102 A 
ATOM      5  C   UNL d   1      -3.562  -0.326   1.206  0.00  0.00     0.040 A 
ATOM      6  C   UNL d   1      -2.276   0.148   1.026  0.00  0.00     0.013 A 
ATOM      7  C   UNL d   1      -1.397  -0.527   0.199  0.00  0.00    -0.023 A 
ATOM      8  C   UNL d   1      -1.798  -1.684  -0.441  0.00  0.00     0.049 A 
ATOM      9  C   UNL d   1      -3.086  -2.168  -0.261  0.00  0.00     0.103 A 
ATOM     10  O   UNL d   1      -3.467  -3.307  -0.902  0.00  0.00    -0.336 OA
ENDROOT
BRANCH   7  11
ATOM     11  C   UNL d   1       0.002  -0.004   0.002  0.00  0.00     0.198 C 
ATOM     12  O   UNL d   1      -0.017   1.423   0.010  0.00  0.00    -0.337 OA
ATOM     13  C   UNL d   1       1.161   2.089   0.002  0.00  0.00     0.089 A 
ATOM     14  C   UNL d   1       2.342   1.468   0.448  0.00  0.00     0.079 A 
ATOM     15  C   UNL d   1       1.213   3.397  -0.447  0.00  0.00     0.074 A 
ATOM     16  C   UNL d   1       2.285   0.076   0.909  0.00  0.00     0.196 C 
ATOM     17  C   UNL d   1       3.556   2.173   0.448  0.00  0.00     0.085 A 
ATOM     18  C   UNL d   1       0.902  -0.507   1.140  0.00  0.00     0.227 C 
ATOM     19  O   UNL d   1       3.292  -0.576   1.097  0.00  0.00    -0.289 OA
ATOM     20  C   UNL d   1       3.585   3.480  -0.003  0.00  0.00     0.074 A 
ATOM     21  C   UNL d   1       2.418   4.088  -0.450  0.00  0.00     0.071 A 
BRANCH  18  22
ATOM     22  O   UNL d   1       0.391  -0.061   2.398  0.00  0.00    -0.385 OA
ATOM     23  H   UNL d   1       0.915  -0.346   3.159  0.00  0.00     0.210 HD
ENDBRANCH  18  22
BRANCH  17  24
ATOM     24  O   UNL d   1       4.692   1.577   0.887  0.00  0.00    -0.360 OA
ATOM     25  H   UNL d   1       5.188   1.118   0.196  0.00  0.00     0.217 HD
ENDBRANCH  17  24
BRANCH  21  26
ATOM     26  O   UNL d   1       2.456   5.369  -0.894  0.00  0.00    -0.361 OA
ATOM     27  H   UNL d   1       2.630   5.452  -1.841  0.00  0.00     0.217 HD
ENDBRANCH  21  26
ENDBRANCH   7  11
BRANCH   1  28
ATOM     28  C   UNL d   1      -5.116  -4.979  -1.411  0.00  0.00    -0.024 A 
ATOM     29  C   UNL d   1      -5.678  -6.166  -0.978  0.00  0.00     0.049 A 
ATOM     30  C   UNL d   1      -6.121  -7.100  -1.900  0.00  0.00     0.101 A 
ATOM     31  C   UNL d   1      -5.989  -6.846  -3.262  0.00  0.00     0.099 A 
ATOM     32  C   UNL d   1      -5.420  -5.657  -3.689  0.00  0.00     0.040 A 
ATOM     33  C   UNL d   1      -4.985  -4.726  -2.764  0.00  0.00     0.013 A 
BRANCH  30  34
ATOM     34  O   UNL d   1      -6.679  -8.265  -1.476  0.00  0.00    -0.353 OA
ATOM     35  C   UNL d   1      -6.782  -8.459  -0.064  0.00  0.00     0.210 C 
ENDBRANCH  30  34
BRANCH  31  36
ATOM     36  O   UNL d   1      -6.417  -7.762  -4.171  0.00  0.00    -0.358 OA
ATOM     37  H   UNL d   1      -5.744  -8.406  -4.428  0.00  0.00     0.217 HD
ENDBRANCH  31  36
ENDBRANCH   1  28
BRANCH   2  38
ATOM     38  C   UNL d   1      -6.039  -2.201  -1.511  0.00  0.00     0.199 C 
BRANCH  38  39
ATOM     39  O   UNL d   1      -7.131  -1.298  -1.326  0.00  0.00    -0.398 OA
ATOM     40  H   UNL d   1      -7.384  -0.818  -2.126  0.00  0.00     0.209 HD
ENDBRANCH  38  39
ENDBRANCH   2  38
TORSDOF 9
