REMARK  16 active torsions:
REMARK  status: ('A' for Active; 'I' for Inactive)
REMARK    1  A    between atoms: C_2  and  C_10 
REMARK    2  A    between atoms: C_4  and  N_9 
REMARK    3  A    between atoms: C_7  and  O_8 
REMARK    4  A    between atoms: C_12  and  C_25 
REMARK    5  A    between atoms: C_17  and  N_18 
REMARK       I    between atoms: N_18  and  C_19 
REMARK       I    between atoms: C_19  and  N_21 
REMARK    6  A    between atoms: C_25  and  O_26 
REMARK    7  A    between atoms: C_42  and  N_51 
REMARK    8  A    between atoms: C_46  and  C_49 
REMARK    9  A    between atoms: C_49  and  O_50 
REMARK       I    between atoms: N_51  and  C_56 
REMARK   10  A    between atoms: C_56  and  C_58 
REMARK   11  A    between atoms: C_58  and  C_59 
REMARK   12  A    between atoms: C_59  and  C_60 
REMARK   13  A    between atoms: C_59  and  N_69 
REMARK   14  A    between atoms: C_60  and  C_61 
REMARK   15  A    between atoms: C_61  and  C_62 
REMARK   16  A    between atoms: C_62  and  N_67 
ROOT
ATOM      1  C   UNK d   2       0.792   3.654  -0.382  0.00  0.00     0.200 C 
ATOM      2  N   UNK d   2      -2.620  -1.845   2.777  0.00  0.00    -0.344 N 
ATOM      3  C   UNK d   2      -2.526  -2.455   1.431  0.00  0.00     0.200 C 
ATOM      4  C   UNK d   2      -1.244  -1.953   0.787  0.00  0.00     0.247 C 
ATOM      5  O   UNK d   2      -0.338  -2.733   0.598  0.00  0.00    -0.271 OA
ATOM      6  N   UNK d   2      -1.215  -0.637   0.452  0.00  0.00    -0.320 N 
ATOM      7  C   UNK d   2      -0.000  -0.018   0.037  0.00  0.00     0.118 C 
ATOM      8  C   UNK d   2       1.157  -0.672  -0.164  0.00  0.00     0.128 C 
ATOM      9  C   UNK d   2      -0.085   1.436  -0.171  0.00  0.00     0.270 C 
ATOM     10  O   UNK d   2      -1.184   1.968  -0.126  0.00  0.00    -0.266 OA
ATOM     11  N   UNK d   2       1.016   2.189  -0.422  0.00  0.00    -0.340 N 
ATOM     12  H   UNK d   2      -2.279  -2.310   3.559  0.00  0.00     0.163 HD
ATOM     13  H   UNK d   2      -2.046  -0.102   0.489  0.00  0.00     0.169 HD
ATOM     14  H   UNK d   2       1.888   1.816  -0.616  0.00  0.00     0.163 HD
ATOM     15  C   UNK d   1       0.400   4.016   1.030  0.00  0.00     0.242 C 
ATOM     16  O   UNK d   1       1.248   4.188   1.880  0.00  0.00    -0.271 OA
ATOM     17  N   UNK d   1      -0.932   4.122   1.333  0.00  0.00    -0.357 N 
ATOM     18  C   UNK d   1      -1.226   4.264   2.781  0.00  0.00     0.157 C 
ATOM     19  C   UNK d   1      -2.624   3.699   3.040  0.00  0.00     0.194 C 
ATOM     20  C   UNK d   1      -2.563   2.198   3.154  0.00  0.00     0.242 C 
ATOM     21  O   UNK d   1      -1.670   1.593   2.597  0.00  0.00    -0.271 OA
ATOM     22  N   UNK d   1      -3.523   1.561   3.894  0.00  0.00    -0.344 N 
ATOM     23  C   UNK d   1      -3.297   0.120   4.151  0.00  0.00     0.200 C 
ATOM     24  C   UNK d   1      -3.214  -0.622   2.847  0.00  0.00     0.243 C 
ATOM     25  O   UNK d   1      -3.693  -0.126   1.844  0.00  0.00    -0.271 OA
ATOM     26  H   UNK d   1      -1.628   4.111   0.656  0.00  0.00     0.162 HD
ATOM     27  H   UNK d   1      -4.318   2.020   4.228  0.00  0.00     0.163 HD
ENDROOT
BRANCH  19  28
ATOM     28  N   UNK d   1      -3.146   4.264   4.287  0.00  0.00    -0.346 N 
ATOM     29  C   UNK d   0      -4.476   4.354   4.482  0.00  0.00     0.220 C 
ATOM     30  O   UNK d   0      -5.242   3.968   3.625  0.00  0.00    -0.274 OA
ATOM     31  H   UNK d   1      -2.533   4.573   4.973  0.00  0.00     0.163 HD
BRANCH  29  32
ATOM     32  C   UNK d   0      -5.012   4.935   5.766  0.00  0.00     0.135 C 
BRANCH  32  33
ATOM     33  C   UNK d   0      -6.542   4.922   5.732  0.00  0.00     0.192 C 
BRANCH  33  34
ATOM     34  C   UNK d   0      -7.086   5.395   7.081  0.00  0.00     0.034 C 
BRANCH  34  35
ATOM     35  C   UNK d   0      -8.610   5.263   7.091  0.00  0.00     0.029 C 
BRANCH  35  36
ATOM     36  C   UNK d   0      -9.154   5.736   8.440  0.00  0.00     0.229 C 
BRANCH  36  37
ATOM     37  N   UNK d   0     -10.623   5.626   8.431  0.00  0.00    -0.079 N 
ATOM     38  H   UNK d   0     -10.900   4.665   8.241  0.00  0.00     0.274 HD
ATOM     39  H   UNK d   0     -11.001   5.917   9.331  0.00  0.00     0.274 HD
ATOM     40  H   UNK d   0     -11.003   6.235   7.696  0.00  0.00     0.274 HD
ENDBRANCH  36  37
ENDBRANCH  35  36
ENDBRANCH  34  35
ENDBRANCH  33  34
BRANCH  33  41
ATOM     41  N   UNK d   0      -7.004   5.810   4.651  0.00  0.00    -0.075 N 
ATOM     42  H   UNK d   0      -8.020   5.780   4.585  0.00  0.00     0.274 HD
ATOM     43  H   UNK d   0      -6.704   6.766   4.832  0.00  0.00     0.274 HD
ATOM     44  H   UNK d   0      -6.601   5.495   3.760  0.00  0.00     0.274 HD
ENDBRANCH  33  41
ENDBRANCH  32  33
ENDBRANCH  29  32
ENDBRANCH  19  28
BRANCH  23  45
ATOM     45  C   UNK d   1      -2.024  -0.074   4.974  0.00  0.00     0.199 C 
BRANCH  45  46
ATOM     46  O   UNK d   1      -0.890   0.310   4.194  0.00  0.00    -0.398 OA
ATOM     47  H   UNK d   1      -0.045   0.212   4.654  0.00  0.00     0.209 HD
ENDBRANCH  45  46
ENDBRANCH  23  45
BRANCH   1  48
ATOM     48  C   UNK d   2       2.081   4.382  -0.765  0.00  0.00     0.135 C 
ATOM     49  C   UNK d   2       2.508   3.974  -2.183  0.00  0.00     0.082 C 
ATOM     50  C   UNK d   2       3.813   4.698  -2.522  0.00  0.00     0.237 C 
ATOM     51  N   UNK d   2       4.784   4.536  -1.446  0.00  0.00    -0.200 N 
ATOM     52  C   UNK d   2       4.466   4.223  -0.233  0.00  0.00     0.669 C 
ATOM     53  HN  UNK d   2       5.770   4.678  -1.663  1.00  0.00     0.180 HD
ATOM     54  N   UNK d   2       3.165   3.993   0.149  0.00  0.00    -0.220 N 
ATOM     55  H   UNK d   2       2.967   3.582   1.005  0.00  0.00     0.178 HD
BRANCH  50  56
ATOM     56  O   UNK d   2       3.545   6.089  -2.709  0.00  0.00    -0.376 OA
ATOM     57  H   UNK d   2       4.324   6.612  -2.944  0.00  0.00     0.212 HD
ENDBRANCH  50  56
BRANCH  52  58
ATOM     58  N   UNK d   2       5.463   4.115   0.708  0.00  0.00    -0.235 N 
ATOM     59  H   UNK d   2       5.242   3.880   1.623  0.00  0.00     0.174 HD
ATOM     60  H   UNK d   2       6.386   4.273   0.456  0.00  0.00     0.174 HD
ENDBRANCH  52  58
ENDBRANCH   1  48
BRANCH   3  61
ATOM     61  C   UNK d   2      -2.470  -3.978   1.554  0.00  0.00     0.199 C 
BRANCH  61  62
ATOM     62  O   UNK d   2      -1.289  -4.355   2.265  0.00  0.00    -0.398 OA
ATOM     63  H   UNK d   2      -1.187  -5.310   2.381  0.00  0.00     0.209 HD
ENDBRANCH  61  62
ENDBRANCH   3  61
BRANCH   8  64
ATOM     64  N   UNK d   2       1.145  -1.951  -0.676  0.00  0.00    -0.317 N 
ATOM     65  C   UNK d   2       2.289  -2.659  -0.749  0.00  0.00     0.317 C 
ATOM     66  O   UNK d   2       3.333  -2.169  -0.362  0.00  0.00    -0.247 OA
ATOM     67  N   UNK d   2       2.278  -3.910  -1.250  0.00  0.00    -0.352 N 
ATOM     68  H   UNK d   2       1.446  -4.301  -1.558  0.00  0.00     0.160 HD
ATOM     69  H   UNK d   2       3.102  -4.419  -1.302  0.00  0.00     0.160 HD
ATOM     70  H   UNK d   2       0.312  -2.343  -0.985  0.00  0.00     0.170 HD
ENDBRANCH   8  64
TORSDOF 16
