REMARK  6 active torsions:
REMARK  status: ('A' for Active; 'I' for Inactive)
REMARK    1  A    between atoms: C_2  and  O_4 
REMARK    2  A    between atoms: O_4  and  C_5 
REMARK    3  A    between atoms: C_14  and  N_15 
REMARK    4  A    between atoms: C_29  and  N_35 
REMARK    5  A    between atoms: C_30  and  O_31 
REMARK    6  A    between atoms: O_31  and  C_32 
ROOT
ATOM      1  C   UNL d   1      -5.036  -3.442   0.694  0.00  0.00     0.165 C 
ATOM      2  C   UNL d   1      -4.862  -2.276   1.675  0.00  0.00     0.040 C 
ATOM      3  C   UNL d   1      -3.600  -1.517   1.290  0.00  0.00    -0.004 C 
ATOM      4  C   UNL d   1      -3.400  -0.224   2.057  0.00  0.00     0.006 C 
ATOM      5  C   UNL d   1      -2.308   0.603   1.358  0.00  0.00     0.006 C 
ATOM      6  C   UNL d   1      -1.493  -0.306   0.448  0.00  0.00    -0.005 C 
ATOM      7  C   UNL d   1      -1.120  -1.599   1.175  0.00  0.00    -0.002 C 
ATOM      8  C   UNL d   1      -2.380  -2.430   1.397  0.00  0.00    -0.034 C 
ATOM      9  C   UNL d   1      -2.530  -3.565   0.391  0.00  0.00     0.048 C 
ATOM     10  C   UNL d   1      -3.811  -4.352   0.689  0.00  0.00     0.253 C 
ATOM     11  C   UNL d   1      -2.285  -3.020   2.809  0.00  0.00     0.016 C 
ATOM     12  C   UNL d   1      -0.067  -2.362   0.384  0.00  0.00     0.007 C 
ATOM     13  C   UNL d   1       1.257  -1.591   0.321  0.00  0.00     0.012 C 
ATOM     14  C   UNL d   1       1.035  -0.111   0.510  0.00  0.00    -0.011 C 
ATOM     15  C   UNL d   1      -0.283   0.341  -0.151  0.00  0.00     0.003 C 
ATOM     16  C   UNL d   1      -0.187   1.868  -0.082  0.00  0.00     0.044 C 
ATOM     17  C   UNL d   1       1.326   2.163  -0.254  0.00  0.00     0.253 C 
ATOM     18  C   UNL d   1       2.033   0.780  -0.276  0.00  0.00     0.173 C 
ATOM     19  C   UNL d   1       1.129   0.285   1.986  0.00  0.00     0.018 C 
ENDROOT
BRANCH  10  20
ATOM     20  N   UNL d   1      -3.988  -5.372  -0.353  0.00  0.00     0.099 N 
ATOM     21  C   UNL d   1      -3.933  -4.772  -1.693  0.00  0.00     0.301 C 
ATOM     22  C   UNL d   1      -4.180  -5.856  -2.745  0.00  0.00     0.266 C 
ATOM     23  N   UNL d   1      -3.159  -6.904  -2.617  0.00  0.00    -0.071 N 
ATOM     24  C   UNL d   1      -3.242  -7.511  -1.282  0.00  0.00     0.266 C 
ATOM     25  C   UNL d   1      -3.386  -7.935  -3.638  0.00  0.00     0.272 C 
ATOM     26  C   UNL d   1      -1.827  -6.315  -2.805  0.00  0.00     0.272 C 
ATOM     27  C   UNL d   1      -2.987  -6.441  -0.218  0.00  0.00     0.301 C 
ENDBRANCH  10  20
BRANCH   1  28
ATOM     28  O   UNL d   1      -6.205  -4.216   1.077  0.00  0.00    -0.314 OA
BRANCH  28  29
ATOM     29  C   UNL d   1      -7.380  -3.851   0.540  0.00  0.00     0.255 C 
ATOM     30  C   UNL d   1      -8.636  -4.606   0.891  0.00  0.00     0.126 C 
ATOM     31  O   UNL d   1      -7.431  -2.917  -0.225  0.00  0.00    -0.266 OA
ENDBRANCH  28  29
ENDBRANCH   1  28
BRANCH  18  32
ATOM     32  O   UNL d   1       2.183   0.299  -1.634  0.00  0.00    -0.313 OA
BRANCH  32  33
ATOM     33  C   UNL d   1       3.399   0.413  -2.190  0.00  0.00     0.255 C 
ATOM     34  O   UNL d   1       4.328   0.821  -1.533  0.00  0.00    -0.266 OA
ATOM     35  C   UNL d   1       3.607   0.033  -3.633  0.00  0.00     0.126 C 
ENDBRANCH  32  33
ENDBRANCH  18  32
BRANCH  17  36
ATOM     36  N   UNL d   1       1.556   2.864  -1.524  0.00  0.00     0.099 N 
ATOM     37  C   UNL d   1       0.755   2.273  -2.605  0.00  0.00     0.301 C 
ATOM     38  C   UNL d   1       1.067   2.992  -3.920  0.00  0.00     0.266 C 
ATOM     39  N   UNL d   1       0.756   4.420  -3.782  0.00  0.00    -0.071 N 
ATOM     40  C   UNL d   1       1.581   5.003  -2.716  0.00  0.00     0.266 C 
ATOM     41  C   UNL d   1       1.038   5.107  -5.050  0.00  0.00     0.272 C 
ATOM     42  C   UNL d   1      -0.665   4.582  -3.444  0.00  0.00     0.272 C 
ATOM     43  C   UNL d   1       1.273   4.300  -1.391  0.00  0.00     0.301 C 
ENDBRANCH  17  36
TORSDOF 6
