REMARK  5 active torsions:
REMARK  status: ('A' for Active; 'I' for Inactive)
REMARK    1  A    between atoms: C_16  and  O_26 
REMARK    2  A    between atoms: C_19  and  C_20 
REMARK    3  A    between atoms: C_19  and  O_24 
REMARK    4  A    between atoms: C_20  and  C_22 
REMARK    5  A    between atoms: C_22  and  O_23 
ROOT
ATOM      1  C   UNL d   1       2.169   2.756  -3.466  0.00  0.00     0.013 C 
ATOM      2  C   UNL d   1       0.657   2.997  -3.489  0.00  0.00     0.025 C 
ATOM      3  C   UNL d   1       0.172   3.182  -4.940  0.00  0.00     0.013 C 
ATOM      4  C   UNL d   1      -1.273   2.619  -4.945  0.00  0.00     0.005 C 
ATOM      5  C   UNL d   1      -2.237   3.757  -4.639  0.00  0.00     0.035 C 
ATOM      6  C   UNL d   1      -1.674   4.730  -3.614  0.00  0.00     0.013 C 
ATOM      7  C   UNL d   1      -2.624   5.924  -3.446  0.00  0.00     0.036 C 
ATOM      8  C   UNL d   1      -3.997   5.380  -3.098  0.00  0.00    -0.061 A 
ATOM      9  C   UNL d   1      -4.592   5.815  -1.996  0.00  0.00     0.058 A 
ATOM     10  C   UNL d   1      -5.904   5.285  -1.593  0.00  0.00     0.172 A 
ATOM     11  O   UNL d   1      -6.471   5.709  -0.605  0.00  0.00    -0.289 OA
ATOM     12  C   UNL d   1      -6.510   4.222  -2.413  0.00  0.00     0.052 A 
ATOM     13  C   UNL d   1      -5.902   3.809  -3.512  0.00  0.00    -0.006 A 
ATOM     14  C   UNL d   1      -4.604   4.358  -4.011  0.00  0.00     0.036 A 
ATOM     15  C   UNL d   1      -3.610   3.224  -4.261  0.00  0.00     0.147 C 
ATOM     16  C   UNL d   1      -3.517   2.336  -3.024  0.00  0.00     0.160 C 
ATOM     17  C   UNL d   1      -2.571   1.176  -3.263  0.00  0.00     0.048 C 
ATOM     18  C   UNL d   1      -1.253   1.498  -3.904  0.00  0.00     0.001 C 
ATOM     19  C   UNL d   1      -0.080   1.748  -2.958  0.00  0.00     0.131 C 
ATOM     20  C   UNL d   1      -0.868   0.211  -4.694  0.00  0.00     0.019 C 
ATOM     21  F   UNL d   1      -4.095   2.446  -5.332  0.00  0.00    -0.238 F 
ATOM     22  C   UNL d   1      -4.900   5.036  -5.352  0.00  0.00     0.028 C 
ENDROOT
BRANCH  19  23
ATOM     23  C   UNL d   1      -0.489   1.960  -1.529  0.00  0.00     0.185 C 
ATOM     24  O   UNL d   1      -0.709   3.076  -1.123  0.00  0.00    -0.292 OA
BRANCH  23  25
ATOM     25  C   UNL d   1      -0.624   0.781  -0.601  0.00  0.00     0.245 C 
BRANCH  25  26
ATOM     26  O   UNL d   1      -1.020   1.236   0.694  0.00  0.00    -0.393 OA
ATOM     27  H   UNL d   1      -1.127   0.528   1.344  0.00  0.00     0.209 HD
ENDBRANCH  25  26
ENDBRANCH  23  25
ENDBRANCH  19  23
BRANCH  19  28
ATOM     28  O   UNL d   1       0.819   0.625  -3.021  0.00  0.00    -0.381 OA
ATOM     29  H   UNL d   1       1.621   0.733  -2.492  0.00  0.00     0.211 HD
ENDBRANCH  19  28
BRANCH  16  30
ATOM     30  O   UNL d   1      -3.170   3.080  -1.863  0.00  0.00    -0.392 OA
ATOM     31  H   UNL d   1      -3.191   2.565  -1.044  0.00  0.00     0.210 HD
ENDBRANCH  16  30
TORSDOF 5
