REMARK  2 active torsions:
REMARK  status: ('A' for Active; 'I' for Inactive)
REMARK    1  A    between atoms: C_2  and  C_3 
REMARK    2  A    between atoms: C_3  and  C_13 
ROOT
ATOM      1  C   UNL d   1      -0.721   2.269   3.561  0.00  0.00     0.149 A 
ATOM      2  C   UNL d   1      -2.218   2.461   3.406  0.00  0.00     0.248 A 
ATOM      3  O   UNL d   1      -2.901   2.849   4.329  0.00  0.00    -0.271 OA
ATOM      4  N   UNL d   1      -2.761   2.185   2.201  0.00  0.00    -0.277 N 
ATOM      5  C   UNL d   1      -2.020   1.762   1.170  0.00  0.00     0.331 A 
ATOM      6  O   UNL d   1      -2.590   1.542   0.120  0.00  0.00    -0.246 OA
ATOM      7  N   UNL d   1      -0.698   1.558   1.213  0.00  0.00    -0.273 N 
ATOM      8  C   UNL d   1       0.023   1.780   2.333  0.00  0.00     0.250 A 
ATOM      9  O   UNL d   1       1.221   1.595   2.355  0.00  0.00    -0.271 OA
ATOM     10  C   UNL d   1      -0.013   1.086   0.008  0.00  0.00     0.164 C 
ATOM     11  H   UNL d   1      -3.716   2.301   2.078  0.00  0.00     0.173 HD
ENDROOT
BRANCH   1  12
ATOM     12  C   UNL d   1      -0.111   3.606   3.986  0.00  0.00     0.030 C 
ATOM     13  C   UNL d   1      -0.254   4.617   2.847  0.00  0.00     0.007 C 
ENDBRANCH   1  12
BRANCH   1  14
ATOM     14  C   UNL d   1      -0.488   1.280   4.674  0.00  0.00    -0.031 A 
ATOM     15  C   UNL d   1      -0.881  -0.036   4.523  0.00  0.00     0.009 A 
ATOM     16  C   UNL d   1      -0.667  -0.943   5.544  0.00  0.00     0.001 A 
ATOM     17  C   UNL d   1      -0.060  -0.533   6.717  0.00  0.00     0.000 A 
ATOM     18  C   UNL d   1       0.332   0.784   6.868  0.00  0.00     0.001 A 
ATOM     19  C   UNL d   1       0.123   1.689   5.845  0.00  0.00     0.009 A 
ENDBRANCH   1  14
TORSDOF 2
