REMARK  8 active torsions:
REMARK  status: ('A' for Active; 'I' for Inactive)
REMARK    1  A    between atoms: C_2  and  C_3 
REMARK    2  A    between atoms: C_3  and  C_4 
REMARK    3  A    between atoms: C_4  and  C_5 
REMARK    4  A    between atoms: C_5  and  C_6 
REMARK    5  A    between atoms: C_6  and  C_7 
REMARK    6  A    between atoms: C_7  and  O_9 
REMARK    7  A    between atoms: O_9  and  C_10 
REMARK    8  A    between atoms: C_25  and  O_27 
ROOT
ATOM      1  C   UNL d   1       0.710   0.252  -4.476  0.00  0.00     0.140 C 
ATOM      2  C   UNL d   1       1.812   1.337  -4.360  0.00  0.00     0.034 C 
ATOM      3  C   UNL d   1       1.578   2.059  -3.002  0.00  0.00     0.008 C 
ATOM      4  C   UNL d   1       0.132   1.674  -2.671  0.00  0.00     0.001 C 
ATOM      5  C   UNL d   1       0.105   0.183  -3.062  0.00  0.00    -0.013 C 
ATOM      6  C   UNL d   1      -1.314  -0.329  -2.978  0.00  0.00     0.013 C 
ATOM      7  C   UNL d   1      -1.834  -0.118  -1.550  0.00  0.00     0.010 C 
ATOM      8  C   UNL d   1      -1.797   1.354  -1.153  0.00  0.00     0.023 C 
ATOM      9  C   UNL d   1      -0.393   1.949  -1.300  0.00  0.00    -0.001 C 
ATOM     10  C   UNL d   1       0.485   1.467  -0.153  0.00  0.00     0.010 C 
ATOM     11  C   UNL d   1      -0.005   2.156   1.127  0.00  0.00     0.039 C 
ATOM     12  C   UNL d   1      -1.478   1.886   1.306  0.00  0.00    -0.049 A 
ATOM     13  C   UNL d   1      -2.295   1.516   0.261  0.00  0.00    -0.047 A 
ATOM     14  C   UNL d   1      -3.645   1.280   0.495  0.00  0.00     0.011 A 
ATOM     15  C   UNL d   1      -4.173   1.414   1.761  0.00  0.00     0.037 A 
ATOM     16  C   UNL d   1      -3.350   1.787   2.814  0.00  0.00     0.066 A 
ATOM     17  C   UNL d   1      -2.006   2.020   2.583  0.00  0.00     0.044 A 
ATOM     18  C   UNL d   1       1.039  -0.678  -2.213  0.00  0.00     0.018 C 
ENDROOT
BRANCH   1  19
ATOM     19  O   UNL d   1      -0.301   0.652  -5.433  0.00  0.00    -0.315 OA
BRANCH  19  20
ATOM     20  C   UNL d   1      -0.171   0.191  -6.687  0.00  0.00     0.259 C 
ATOM     21  O   UNL d   1       0.760  -0.525  -6.973  0.00  0.00    -0.265 OA
BRANCH  20  22
ATOM     22  C   UNL d   1      -1.185   0.566  -7.737  0.00  0.00     0.111 C 
BRANCH  22  23
ATOM     23  C   UNL d   1      -0.806  -0.087  -9.068  0.00  0.00     0.010 C 
BRANCH  23  24
ATOM     24  C   UNL d   1      -1.835   0.293 -10.133  0.00  0.00     0.000 C 
BRANCH  24  25
ATOM     25  C   UNL d   1      -1.456  -0.359 -11.464  0.00  0.00    -0.000 C 
BRANCH  25  26
ATOM     26  C   UNL d   1      -2.486   0.021 -12.530  0.00  0.00    -0.005 C 
ATOM     27  C   UNL d   1      -2.107  -0.632 -13.861  0.00  0.00     0.005 C 
ENDBRANCH  25  26
ENDBRANCH  24  25
ENDBRANCH  23  24
ENDBRANCH  22  23
ENDBRANCH  20  22
ENDBRANCH  19  20
ENDBRANCH   1  19
BRANCH  16  28
ATOM     28  O   UNL d   1      -3.861   1.922   4.066  0.00  0.00    -0.361 OA
ATOM     29  H   UNL d   1      -4.185   2.811   4.265  0.00  0.00     0.217 HD
ENDBRANCH  16  28
TORSDOF 8
