REMARK  2 active torsions:
REMARK  status: ('A' for Active; 'I' for Inactive)
REMARK    1  A    between atoms: C_2  and  C_3 
REMARK    2  A    between atoms: C_3  and  O_7 
ROOT
ATOM      1  C   UNL d   1      -0.019   1.526   0.010  0.00  0.00     0.116 C 
ATOM      2  C   UNL d   1       0.002  -0.004   0.002  0.00  0.00     0.060 C 
ATOM      3  C   UNL d   1      -0.708   2.001   1.222  0.00  0.00    -0.080 C 
ATOM      4  C   UNL d   1      -1.257   2.379   2.187  0.00  0.00     0.015 C 
ENDROOT
BRANCH   1   5
ATOM      5  C   UNL d   1      -0.759   2.033  -1.229  0.00  0.00     0.046 C 
ATOM      6  C   UNL d   1      -0.117   1.438  -2.485  0.00  0.00     0.009 C 
ENDBRANCH   1   5
BRANCH   1   7
ATOM      7  O   UNL d   1       1.322   2.020   0.000  0.00  0.00    -0.378 OA
ATOM      8  H   UNL d   1       1.385   2.985   0.005  0.00  0.00     0.211 HD
ENDBRANCH   1   7
TORSDOF 2
