REMARK  10 active torsions:
REMARK  status: ('A' for Active; 'I' for Inactive)
REMARK    1  A    between atoms: C_2  and  C_3 
REMARK    2  A    between atoms: C_3  and  O_54 
REMARK    3  A    between atoms: C_7  and  C_22 
REMARK    4  A    between atoms: C_7  and  C_50 
REMARK    5  A    between atoms: C_27  and  O_28 
REMARK    6  A    between atoms: C_36  and  C_47 
REMARK    7  A    between atoms: C_40  and  O_46 
REMARK    8  A    between atoms: C_41  and  C_42 
REMARK    9  A    between atoms: C_41  and  O_45 
REMARK       I    between atoms: C_42  and  N_44 
REMARK   10  A    between atoms: C_50  and  O_52 
ROOT
ATOM      1  C   UNL d   1       2.066   5.414  -2.527  0.00  0.00     0.000 A 
ATOM      2  C   UNL d   1       2.777   6.553  -2.894  0.00  0.00     0.021 A 
ATOM      3  C   UNL d   1       2.972   7.505  -1.926  0.00  0.00    -0.024 A 
ATOM      4  C   UNL d   1       2.466   7.359  -0.612  0.00  0.00     0.020 A 
ATOM      5  C   UNL d   1       1.766   6.217  -0.254  0.00  0.00     0.061 A 
ATOM      6  C   UNL d   1       1.579   5.251  -1.242  0.00  0.00     0.077 A 
ATOM      7  N   UNL d   1       2.778   8.504   0.155  0.00  0.00    -0.278 NA
ATOM      8  C   UNL d   1       2.857   9.544  -0.881  0.00  0.00     0.124 C 
ATOM      9  C   UNL d   1       3.696   8.825  -1.925  0.00  0.00     0.040 C 
ATOM     10  C   UNL d   1       5.163   8.517  -1.611  0.00  0.00     0.046 C 
ATOM     11  C   UNL d   1       5.802   8.385  -3.026  0.00  0.00     0.237 C 
ATOM     12  C   UNL d   1       3.735   9.584  -3.240  0.00  0.00     0.218 C 
ATOM     13  C   UNL d   1       4.024  11.057  -2.994  0.00  0.00     0.036 C 
ATOM     14  C   UNL d   1       4.059  11.737  -4.335  0.00  0.00    -0.015 C 
ATOM     15  C   UNL d   1       4.694  11.104  -5.293  0.00  0.00    -0.003 C 
ATOM     16  C   UNL d   1       5.358   9.772  -5.089  0.00  0.00     0.262 C 
ATOM     17  C   UNL d   1       3.303  11.762  -1.900  0.00  0.00     0.178 C 
ATOM     18  C   UNL d   1       3.168  10.963  -0.585  0.00  0.00     0.182 C 
ATOM     19  C   UNL d   1       1.694   8.781   1.107  0.00  0.00     0.117 C 
ATOM     20  N   UNL d   1       4.800   8.896  -3.985  0.00  0.00    -0.061 N 
ATOM     21  H   UNL d   1       4.381   8.078  -4.443  0.00  0.00     0.280 HD
ENDROOT
BRANCH   1  22
ATOM     22  C   UNL d   1       1.826   4.336  -3.551  0.00  0.00     0.117 C 
ATOM     23  C   UNL d   1       2.306   3.047  -2.961  0.00  0.00     0.037 C 
ATOM     24  C   UNL d   1       3.098   2.060  -3.748  0.00  0.00     0.016 C 
ATOM     25  C   UNL d   1       4.291   2.469  -4.550  0.00  0.00     0.045 C 
ATOM     26  C   UNL d   1       2.189   1.035  -4.436  0.00  0.00     0.239 C 
ATOM     27  C   UNL d   1       4.220   2.032  -6.007  0.00  0.00     0.082 C 
ATOM     28  C   UNL d   1       2.812   2.102  -6.564  0.00  0.00     0.272 C 
ATOM     29  N   UNL d   1       1.860   1.229  -5.897  0.00  0.00    -0.068 N 
ATOM     30  C   UNL d   1       0.459   1.707  -6.154  0.00  0.00     0.236 C 
ATOM     31  H   UNL d   1       1.941   0.305  -6.337  0.00  0.00     0.280 HD
ATOM     32  C   UNL d   1      -0.369   2.136  -4.931  0.00  0.00     0.043 C 
ATOM     33  C   UNL d   1      -0.456   3.647  -4.824  0.00  0.00     0.070 A 
ATOM     34  C   UNL d   1       0.348   4.317  -3.789  0.00  0.00     0.019 A 
ATOM     35  C   UNL d   1      -1.863   4.094  -4.572  0.00  0.00    -0.022 A 
ATOM     36  N   UNL d   1      -0.477   4.997  -3.031  0.00  0.00    -0.360 N 
ATOM     37  C   UNL d   1      -1.769   4.909  -3.427  0.00  0.00     0.039 A 
ATOM     38  HN  UNL d   1      -0.176   5.539  -2.222  1.00  0.00     0.165 HD
ATOM     39  C   UNL d   1      -2.925   5.477  -2.876  0.00  0.00     0.030 A 
ATOM     40  C   UNL d   1      -4.125   5.211  -3.514  0.00  0.00     0.002 A 
ATOM     41  C   UNL d   1      -4.195   4.426  -4.648  0.00  0.00     0.001 A 
ATOM     42  C   UNL d   1      -3.056   3.849  -5.205  0.00  0.00     0.010 A 
BRANCH  27  43
ATOM     43  C   UNL d   1       5.141   2.929  -6.846  0.00  0.00     0.035 C 
ATOM     44  C   UNL d   1       5.043   2.525  -8.319  0.00  0.00     0.008 C 
ENDBRANCH  27  43
BRANCH  27  45
ATOM     45  O   UNL d   1       4.696   0.681  -6.110  0.00  0.00    -0.388 OA
ATOM     46  H   UNL d   1       4.726   0.342  -7.015  0.00  0.00     0.210 HD
ENDBRANCH  27  45
BRANCH  22  47
ATOM     47  C   UNL d   1       2.500   4.784  -4.810  0.00  0.00     0.277 C 
ATOM     48  O   UNL d   1       3.671   5.081  -4.796  0.00  0.00    -0.264 OA
BRANCH  47  49
ATOM     49  O   UNL d   1       1.803   4.856  -5.955  0.00  0.00    -0.325 OA
ATOM     50  C   UNL d   1       2.520   5.299  -7.137  0.00  0.00     0.213 C 
ENDBRANCH  47  49
ENDBRANCH  22  47
ENDBRANCH   1  22
BRANCH   6  51
ATOM     51  O   UNL d   1       0.901   4.115  -0.930  0.00  0.00    -0.355 OA
ATOM     52  C   UNL d   1       0.419   3.994   0.409  0.00  0.00     0.210 C 
ENDBRANCH   6  51
BRANCH  18  53
ATOM     53  C   UNL d   1       4.367  11.123   0.314  0.00  0.00     0.254 C 
ATOM     54  O   UNL d   1       5.154  10.209   0.443  0.00  0.00    -0.270 OA
ATOM     55  N   UNL d   1       4.564  12.280   0.976  0.00  0.00    -0.367 N 
ATOM     56  H   UNL d   1       3.934  13.011   0.873  0.00  0.00     0.159 HD
ATOM     57  H   UNL d   1       5.335  12.383   1.555  0.00  0.00     0.159 HD
ENDBRANCH  18  53
BRANCH  18  58
ATOM     58  O   UNL d   1       2.040  11.538   0.131  0.00  0.00    -0.376 OA
ATOM     59  H   UNL d   1       2.157  12.469   0.367  0.00  0.00     0.211 HD
ENDBRANCH  18  58
BRANCH  13  60
ATOM     60  C   UNL d   1       5.488  11.226  -2.615  0.00  0.00     0.014 C 
ATOM     61  C   UNL d   1       5.953  12.634  -2.992  0.00  0.00     0.006 C 
ENDBRANCH  13  60
BRANCH  17  62
ATOM     62  O   UNL d   1       3.970  13.004  -1.623  0.00  0.00    -0.391 OA
ATOM     63  H   UNL d   1       3.507  13.567  -0.988  0.00  0.00     0.210 HD
ENDBRANCH  17  62
TORSDOF 10
