REMARK  8 active torsions:
REMARK  status: ('A' for Active; 'I' for Inactive)
REMARK    1  A    between atoms: C_2  and  N_18 
REMARK    2  A    between atoms: C_4  and  C_5 
REMARK    3  A    between atoms: C_4  and  N_18 
REMARK    4  A    between atoms: C_5  and  C_6 
REMARK    5  A    between atoms: C_5  and  O_15 
REMARK    6  A    between atoms: C_6  and  O_7 
REMARK    7  A    between atoms: O_7  and  C_8 
REMARK    8  A    between atoms: C_11  and  O_14 
ROOT
ATOM      1  C   UNL d   1       0.002  -0.004   0.002  0.00  0.00     0.168 C 
ENDROOT
BRANCH   1   2
ATOM      2  C   UNL d   1       0.718  -0.497  -1.257  0.00  0.00     0.266 C 
BRANCH   2   3
ATOM      3  N   UNL d   1      -0.001  -0.005  -2.447  0.00  0.00    -0.069 N 
ATOM      4  H   UNL d   1      -0.964  -0.360  -2.432  0.00  0.00     0.277 HD
ATOM      5  H   UNL d   1      -0.015   1.022  -2.433  0.00  0.00     0.277 HD
BRANCH   3   6
ATOM      6  C   UNL d   1       0.668  -0.466  -3.677  0.00  0.00     0.178 C 
ATOM      7  C   UNL d   1      -0.350  -0.507  -4.818  0.00  0.00     0.039 C 
ATOM      8  C   UNL d   1       1.798   0.501  -4.037  0.00  0.00     0.039 C 
ENDBRANCH   3   6
ENDBRANCH   2   3
ENDBRANCH   1   2
BRANCH   1   9
ATOM      9  C   UNL d   1       0.742  -0.511   1.242  0.00  0.00     0.209 C 
BRANCH   9  10
ATOM     10  O   UNL d   1       0.010  -0.149   2.414  0.00  0.00    -0.349 OA
BRANCH  10  11
ATOM     11  C   UNL d   1       0.535  -0.527   3.611  0.00  0.00     0.069 A 
ATOM     12  C   UNL d   1      -0.124  -0.208   4.789  0.00  0.00     0.039 A 
ATOM     13  C   UNL d   1       0.409  -0.592   6.004  0.00  0.00     0.039 A 
ATOM     14  C   UNL d   1       1.603  -1.297   6.046  0.00  0.00     0.065 A 
ATOM     15  C   UNL d   1       2.262  -1.616   4.868  0.00  0.00     0.039 A 
ATOM     16  C   UNL d   1       1.726  -1.236   3.652  0.00  0.00     0.039 A 
BRANCH  14  17
ATOM     17  O   UNL d   1       2.127  -1.675   7.242  0.00  0.00    -0.361 OA
ATOM     18  H   UNL d   1       1.832  -2.545   7.544  0.00  0.00     0.217 HD
ENDBRANCH  14  17
ENDBRANCH  10  11
ENDBRANCH   9  10
ENDBRANCH   1   9
BRANCH   1  19
ATOM     19  O   UNL d   1      -0.017   1.425   0.010  0.00  0.00    -0.392 OA
ATOM     20  H   UNL d   1       0.861   1.830   0.004  0.00  0.00     0.210 HD
ENDBRANCH   1  19
TORSDOF 8
