REMARK  5 active torsions:
REMARK  status: ('A' for Active; 'I' for Inactive)
REMARK    1  A    between atoms: O_2  and  C_3 
REMARK    2  A    between atoms: C_5  and  C_13 
REMARK    3  A    between atoms: C_7  and  O_11 
REMARK    4  A    between atoms: C_8  and  O_9 
REMARK       I    between atoms: C_13  and  N_15 
REMARK    5  A    between atoms: N_15  and  C_16 
ROOT
ATOM      1  C   UNL d   1      -4.862   0.840   0.029  0.00  0.00     0.105 A 
ATOM      2  C   UNL d   1      -3.675   1.549   0.028  0.00  0.00     0.057 A 
ATOM      3  C   UNL d   1      -2.455   0.868   0.018  0.00  0.00     0.037 A 
ATOM      4  C   UNL d   1      -2.438  -0.528   0.005  0.00  0.00     0.057 A 
ATOM      5  C   UNL d   1      -3.627  -1.234   0.012  0.00  0.00     0.105 A 
ATOM      6  C   UNL d   1      -4.841  -0.553   0.021  0.00  0.00     0.135 A 
ENDROOT
BRANCH   3   7
ATOM      7  C   UNL d   1      -1.187   1.624   0.017  0.00  0.00     0.252 C 
ATOM      8  O   UNL d   1      -1.204   2.840   0.023  0.00  0.00    -0.268 OA
ATOM      9  N   UNL d   1      -0.011   0.966   0.007  0.00  0.00    -0.351 N 
ATOM     10  H   UNL d   1       0.002  -0.004   0.002  0.00  0.00     0.163 HD
BRANCH   9  11
ATOM     11  C   UNL d   1       1.248   1.716  -0.001  0.00  0.00     0.110 C 
ATOM     12  C   UNL d   1       1.636   2.077   1.435  0.00  0.00     0.257 C 
ATOM     13  N   UNL d   1       2.910   2.822   1.433  0.00  0.00    -0.073 N 
ATOM     14  C   UNL d   1       3.993   1.987   0.881  0.00  0.00     0.232 C 
ATOM     15  H   UNL d   1       2.807   3.666   0.858  0.00  0.00     0.277 HD
ATOM     16  H   UNL d   1       3.146   3.090   2.396  0.00  0.00     0.277 HD
ATOM     17  C   UNL d   1       3.675   1.622  -0.571  0.00  0.00     0.029 C 
ATOM     18  C   UNL d   1       2.351   0.855  -0.621  0.00  0.00     0.028 C 
ENDBRANCH   9  11
ENDBRANCH   3   7
BRANCH   1  19
ATOM     19  O   UNL d   1      -6.050   1.502   0.039  0.00  0.00    -0.353 OA
ATOM     20  C   UNL d   1      -5.996   2.930   0.047  0.00  0.00     0.210 C 
ENDBRANCH   1  19
BRANCH   5  21
ATOM     21  O   UNL d   1      -3.611  -2.593   0.004  0.00  0.00    -0.353 OA
ATOM     22  C   UNL d   1      -2.329  -3.227  -0.004  0.00  0.00     0.210 C 
ENDBRANCH   5  21
BRANCH   6  23
ATOM     23  O   UNL d   1      -6.009  -1.248   0.022  0.00  0.00    -0.351 OA
ATOM     24  C   UNL d   1      -6.572  -1.573  -1.250  0.00  0.00     0.210 C 
ENDBRANCH   6  23
TORSDOF 5
