REMARK  6 active torsions:
REMARK  status: ('A' for Active; 'I' for Inactive)
REMARK    1  A    between atoms: C_2  and  C_3 
REMARK    2  A    between atoms: C_3  and  C_4 
REMARK    3  A    between atoms: C_20  and  O_30 
REMARK    4  A    between atoms: C_23  and  C_25 
REMARK    5  A    between atoms: C_25  and  C_27 
REMARK    6  A    between atoms: C_27  and  O_28 
ROOT
ATOM      1  C   UNL d   1       1.441   6.752   0.992  0.00  0.00     0.262 C 
ATOM      2  O   UNL d   1       2.642   6.368   0.321  0.00  0.00    -0.352 OA
ATOM      3  C   UNL d   1       2.304   5.422  -0.700  0.00  0.00     0.168 C 
ATOM      4  C   UNL d   1       2.500   3.985  -0.157  0.00  0.00     0.041 C 
ATOM      5  C   UNL d   1       1.081   3.489   0.112  0.00  0.00     0.004 C 
ATOM      6  C   UNL d   1       0.834   2.022   0.227  0.00  0.00    -0.001 C 
ATOM      7  C   UNL d   1       1.419   1.172  -0.897  0.00  0.00     0.010 C 
ATOM      8  C   UNL d   1       1.556  -0.248  -0.331  0.00  0.00     0.036 C 
ATOM      9  C   UNL d   1       0.244  -0.668   0.278  0.00  0.00    -0.064 C 
ATOM     10  C   UNL d   1       0.134  -1.965   0.640  0.00  0.00     0.058 C 
ATOM     11  C   UNL d   1      -1.169  -2.378   1.223  0.00  0.00     0.172 C 
ATOM     12  O   UNL d   1      -1.679  -3.459   0.991  0.00  0.00    -0.289 OA
ATOM     13  C   UNL d   1      -1.803  -1.369   2.112  0.00  0.00     0.052 C 
ATOM     14  C   UNL d   1      -1.676  -0.083   1.737  0.00  0.00    -0.009 C 
ATOM     15  C   UNL d   1      -0.923   0.242   0.474  0.00  0.00     0.004 C 
ATOM     16  C   UNL d   1      -0.661   1.720   0.360  0.00  0.00     0.035 C 
ATOM     17  C   UNL d   1      -1.526   2.466  -0.634  0.00  0.00     0.124 C 
ATOM     18  C   UNL d   1      -1.204   3.975  -0.674  0.00  0.00     0.045 C 
ATOM     19  C   UNL d   1       0.260   4.156  -1.010  0.00  0.00     0.004 C 
ATOM     20  C   UNL d   1       0.770   5.611  -0.908  0.00  0.00     0.160 C 
ATOM     21  O   UNL d   1       0.313   6.187   0.322  0.00  0.00    -0.339 OA
ATOM     22  C   UNL d   1       0.585   3.631  -2.406  0.00  0.00     0.019 C 
ATOM     23  C   UNL d   1      -1.878  -0.149  -0.653  0.00  0.00     0.025 C 
ENDROOT
BRANCH  20  24
ATOM     24  C   UNL d   1       0.425   6.431  -2.123  0.00  0.00     0.188 C 
ATOM     25  O   UNL d   1       0.325   5.899  -3.202  0.00  0.00    -0.292 OA
BRANCH  24  26
ATOM     26  C   UNL d   1       0.204   7.916  -1.991  0.00  0.00     0.245 C 
BRANCH  26  27
ATOM     27  O   UNL d   1      -0.108   8.467  -3.272  0.00  0.00    -0.393 OA
ATOM     28  H   UNL d   1      -0.263   9.421  -3.262  0.00  0.00     0.209 HD
ENDBRANCH  26  27
ENDBRANCH  24  26
ENDBRANCH  20  24
BRANCH   1  29
ATOM     29  C   UNL d   1       1.322   8.278   0.996  0.00  0.00     0.060 C 
BRANCH  29  30
ATOM     30  C   UNL d   1       2.463   8.877   1.820  0.00  0.00     0.000 C 
ATOM     31  C   UNL d   1       2.344  10.402   1.824  0.00  0.00     0.005 C 
ENDBRANCH  29  30
ENDBRANCH   1  29
BRANCH  17  32
ATOM     32  O   UNL d   1      -2.905   2.374  -0.235  0.00  0.00    -0.395 OA
ATOM     33  H   UNL d   1      -3.517   2.831  -0.828  0.00  0.00     0.210 HD
ENDBRANCH  17  32
TORSDOF 6
