REMARK  9 active torsions:
REMARK  status: ('A' for Active; 'I' for Inactive)
REMARK    1  A    between atoms: C_2  and  C_3 
REMARK    2  A    between atoms: C_3  and  C_4 
REMARK    3  A    between atoms: C_4  and  C_5 
REMARK    4  A    between atoms: C_9  and  C_31 
REMARK    5  A    between atoms: N_10  and  C_11 
REMARK    6  A    between atoms: C_11  and  C_12 
REMARK    7  A    between atoms: C_15  and  C_18 
REMARK    8  A    between atoms: C_23  and  C_24 
REMARK    9  A    between atoms: C_31  and  O_32 
ROOT
ATOM      1  C   UNL d   1       4.724   5.383   0.030  0.00  0.00    -0.040 A 
ATOM      2  C   UNL d   1       3.794   5.563  -0.979  0.00  0.00     0.010 A 
ATOM      3  C   UNL d   1       2.602   4.868  -0.954  0.00  0.00     0.013 A 
ATOM      4  C   UNL d   1       2.336   3.983   0.090  0.00  0.00    -0.025 A 
ATOM      5  C   UNL d   1       3.274   3.811   1.107  0.00  0.00     0.013 A 
ATOM      6  C   UNL d   1       4.465   4.507   1.069  0.00  0.00     0.010 A 
ENDROOT
BRANCH   1   7
ATOM      7  C   UNL d   1       6.024   6.145  -0.003  0.00  0.00     0.169 C 
BRANCH   7   8
ATOM      8  N   UNL d   1       5.887   7.378   0.775  0.00  0.00    -0.331 N 
ATOM      9  C   UNL d   1       6.233   7.552   2.068  0.00  0.00     0.085 A 
ATOM     10  N   UNL d   1       5.966   8.783   2.412  0.00  0.00    -0.335 N 
ATOM     11  C   UNL d   1       5.436   9.430   1.364  0.00  0.00     0.130 A 
ATOM     12  HN  UNL d   1       6.133   9.188   3.333  1.00  0.00     0.168 HD
ATOM     13  C   UNL d   1       5.378   8.569   0.329  0.00  0.00     0.075 A 
ATOM     14 CL   UNL d   1       4.916  11.086   1.344  0.00  0.00    -0.062 Cl
BRANCH   9  15
ATOM     15  C   UNL d   1       6.833   6.500   2.966  0.00  0.00     0.076 C 
BRANCH  15  16
ATOM     16  C   UNL d   1       8.355   6.651   2.982  0.00  0.00     0.007 C 
BRANCH  16  17
ATOM     17  C   UNL d   1       8.956   5.655   3.976  0.00  0.00    -0.004 C 
ATOM     18  C   UNL d   1      10.478   5.805   3.992  0.00  0.00     0.005 C 
ENDBRANCH  16  17
ENDBRANCH  15  16
ENDBRANCH   9  15
BRANCH  13  19
ATOM     19  C   UNL d   1       4.853   8.860  -1.054  0.00  0.00     0.224 C 
BRANCH  19  20
ATOM     20  O   UNL d   1       3.454   8.571  -1.103  0.00  0.00    -0.395 OA
ATOM     21  H   UNL d   1       3.049   8.735  -1.966  0.00  0.00     0.209 HD
ENDBRANCH  19  20
ENDBRANCH  13  19
ENDBRANCH   7   8
ENDBRANCH   1   7
BRANCH   4  22
ATOM     22  C   UNL d   1       1.058   3.233   0.123  0.00  0.00    -0.012 A 
ATOM     23  C   UNL d   1       1.059   1.842   0.320  0.00  0.00     0.022 A 
ATOM     24  C   UNL d   1      -0.150   1.150   0.348  0.00  0.00     0.016 A 
ATOM     25  C   UNL d   1      -1.339   1.830   0.178  0.00  0.00     0.001 A 
ATOM     26  C   UNL d   1      -1.340   3.202  -0.010  0.00  0.00     0.001 A 
ATOM     27  C   UNL d   1      -0.151   3.904  -0.042  0.00  0.00     0.013 A 
BRANCH  23  28
ATOM     28  C   UNL d   1       2.335   1.117   0.495  0.00  0.00     0.148 A 
ATOM     29  N   UNL d   1       3.542   1.644   0.490  0.00  0.00    -0.268 N 
ATOM     30  N   UNL d   1       4.431   0.734   0.669  0.00  0.00    -0.227 N 
ATOM     31  HN  UNL d   1       3.743   2.636   0.361  1.00  0.00     0.190 HD
ATOM     32  N   UNL d   1       3.872  -0.420   0.800  0.00  0.00    -0.227 N 
ATOM     33  HN  UNL d   1       5.436   0.901   0.704  1.00  0.00     0.210 HD
ATOM     34  N   UNL d   1       2.505  -0.197   0.695  0.00  0.00    -0.268 N 
ATOM     35  HN  UNL d   1       4.338  -1.314   0.951  1.00  0.00     0.210 HD
ATOM     36  HN  UNL d   1       1.769  -0.900   0.759  1.00  0.00     0.190 HD
ENDBRANCH  23  28
ENDBRANCH   4  22
TORSDOF 9
