REMARK  6 active torsions:
REMARK  status: ('A' for Active; 'I' for Inactive)
REMARK    1  A    between atoms: O_2  and  C_3 
REMARK    2  A    between atoms: CA_4  and  C_22 
REMARK    3  A    between atoms: CA_7  and  N_10 
REMARK       I    between atoms: N_10  and  C_11 
REMARK    4  A    between atoms: C_11  and  CA_13 
REMARK    5  A    between atoms: CA_13  and  C_14 
REMARK    6  A    between atoms: CA_13  and  N_27 
ROOT
ATOM      1  N   UNL d   1       0.466  -4.274  -1.963  0.00  0.00    -0.343 N 
ATOM      2  C   UNL d   1       0.744  -5.431  -2.595  0.00  0.00     0.253 C 
ATOM      3  O   UNL d   1       1.537  -6.211  -2.111  0.00  0.00    -0.271 OA
ATOM      4  H   UNL d   1      -0.168  -3.650  -2.350  0.00  0.00     0.163 HD
ENDROOT
BRANCH   1   5
ATOM      5  CA  UNL d   1       1.121  -3.957  -0.691  0.00  0.00     0.210 C 
ATOM      6  C   UNL d   1       0.327  -2.993   0.183  0.00  0.00     0.187 C 
ATOM      7  N   UNL d   1       1.343  -1.971  -0.226  0.00  0.00    -0.291 N 
ATOM      8  S   UNL d   1      -1.253  -2.417  -0.524  0.00  0.00    -0.134 SA
ATOM      9  CA  UNL d   1       1.212  -0.569  -0.124  0.00  0.00     0.146 C 
ATOM     10  C   UNL d   1       2.169  -2.862  -0.800  0.00  0.00     0.251 C 
ATOM     11  C   UNL d   1      -0.001  -0.017  -0.017  0.00  0.00     0.089 C 
ATOM     12  C   UNL d   1      -1.323  -0.705   0.086  0.00  0.00     0.143 C 
ATOM     13  O   UNL d   1       3.300  -2.812  -1.234  0.00  0.00    -0.271 OA
BRANCH   9  14
ATOM     14  C   UNL d   1       2.404   0.278  -0.130  0.00  0.00     0.229 C 
ATOM     15  O   UNL d   1       3.499  -0.213  -0.325  0.00  0.00    -0.643 OA
ATOM     16  OXT UNL d   1       2.288   1.606   0.082  0.00  0.00    -0.643 OA
ENDBRANCH   9  14
BRANCH  11  17
ATOM     17  O   UNL d   1      -0.036   1.333  -0.006  0.00  0.00    -0.357 OA
ATOM     18  C   UNL d   1      -0.487   1.960   1.196  0.00  0.00     0.209 C 
ENDBRANCH  11  17
ENDBRANCH   1   5
BRANCH   2  19
ATOM     19  CA  UNL d   1       0.071  -5.756  -3.903  0.00  0.00     0.303 C 
BRANCH  19  20
ATOM     20  C   UNL d   1      -1.317  -6.279  -3.637  0.00  0.00    -0.041 C 
ATOM     21  C   UNL d   1      -1.466  -7.580  -2.908  0.00  0.00     0.063 C 
ATOM     22  C   UNL d   1      -2.839  -7.719  -2.321  0.00  0.00    -0.026 C 
ATOM     23  C   UNL d   1      -3.854  -7.022  -2.733  0.00  0.00    -0.027 C 
ATOM     24  C   UNL d   1      -3.753  -6.011  -3.836  0.00  0.00     0.054 C 
ATOM     25  C   UNL d   1      -2.333  -5.580  -4.044  0.00  0.00    -0.017 C 
ENDBRANCH  19  20
BRANCH  19  26
ATOM     26  N   UNL d   1       0.873  -6.766  -4.617  0.00  0.00    -0.063 N 
ATOM     27  H1  UNL d   1       0.922  -7.623  -4.069  0.00  0.00     0.275 HD
ATOM     28  H2  UNL d   1       0.455  -6.966  -5.524  0.00  0.00     0.275 HD
ATOM     29  H3  UNL d   1       1.823  -6.403  -4.758  0.00  0.00     0.275 HD
ENDBRANCH  19  26
ENDBRANCH   2  19
TORSDOF 6
