REMARK  0 active torsions:
REMARK  status: ('A' for Active; 'I' for Inactive)
REMARK       I    between atoms: N_15  and  C_16 
REMARK       I    between atoms: C_16  and  N_18 
ROOT
ATOM      1  C   UNL d   1       1.252   1.831  -0.000  0.00  0.00     0.001 A 
ATOM      2  C   UNL d   1      -0.013   1.076   0.008  0.00  0.00     0.002 A 
ATOM      3  C   UNL d   1      -1.159   1.719   0.017  0.00  0.00     0.031 A 
ATOM      4  C   UNL d   1      -1.183   3.194   0.030  0.00  0.00     0.054 A 
ATOM      5  C   UNL d   1      -0.055   3.868   0.056  0.00  0.00    -0.009 A 
ATOM      6  C   UNL d   1       1.232   3.145   0.022  0.00  0.00     0.014 A 
ATOM      7  C   UNL d   1      -0.056   5.330   0.163  0.00  0.00     0.014 C 
ATOM      8  C   UNL d   1      -0.891   6.126  -0.425  0.00  0.00     0.014 C 
ATOM      9  C   UNL d   1      -1.988   5.707  -1.305  0.00  0.00    -0.009 A 
ATOM     10  C   UNL d   1      -2.325   6.530  -2.482  0.00  0.00     0.014 A 
ATOM     11  C   UNL d   1      -3.348   6.210  -3.243  0.00  0.00     0.001 A 
ATOM     12  C   UNL d   1      -4.161   5.025  -2.920  0.00  0.00     0.002 A 
ATOM     13  C   UNL d   1      -3.853   4.283  -1.879  0.00  0.00     0.031 A 
ATOM     14  C   UNL d   1      -2.694   4.633  -1.035  0.00  0.00     0.054 A 
ATOM     15  N   UNL d   1      -2.371   3.836   0.006  0.00  0.00    -0.263 N 
ATOM     16  C   UNL d   1      -3.239   3.679   1.026  0.00  0.00     0.325 C 
ATOM     17  O   UNL d   1      -2.952   2.963   1.962  0.00  0.00    -0.247 OA
ATOM     18  N   UNL d   1      -4.426   4.317   1.005  0.00  0.00    -0.351 N 
ATOM     19  H   UNL d   1      -4.655   4.890   0.256  0.00  0.00     0.160 HD
ATOM     20  H   UNL d   1      -5.050   4.205   1.738  0.00  0.00     0.160 HD
ENDROOT
TORSDOF 0
