REMARK  2 active torsions:
REMARK  status: ('A' for Active; 'I' for Inactive)
REMARK    1  A    between atoms: C_2  and  C_3 
REMARK    2  A    between atoms: C_2  and  C_18 
ROOT
ATOM      1  C   UNL d   1      -5.880   2.119   1.285  0.00  0.00    -0.043 A 
ATOM      2  C   UNL d   1      -5.747   3.495   1.276  0.00  0.00     0.011 A 
ATOM      3  C   UNL d   1      -4.565   4.072   0.858  0.00  0.00     0.038 A 
ATOM      4  C   UNL d   1      -3.505   3.271   0.446  0.00  0.00     0.084 A 
ATOM      5  C   UNL d   1      -3.641   1.893   0.458  0.00  0.00    -0.019 A 
ATOM      6  C   UNL d   1      -4.829   1.320   0.877  0.00  0.00     0.018 A 
ATOM      7  C   UNL d   1      -2.508   1.005   0.018  0.00  0.00     0.084 C 
ATOM      8  C   UNL d   1      -1.213   1.767   0.017  0.00  0.00    -0.002 A 
ATOM      9  C   UNL d   1      -0.013   1.076   0.008  0.00  0.00     0.013 A 
ATOM     10  C   UNL d   1       1.171   1.801   0.001  0.00  0.00     0.018 A 
ATOM     11  C   UNL d   1       1.113   3.181   0.008  0.00  0.00     0.090 A 
ATOM     12  N   UNL d   1      -0.045   3.809   0.023  0.00  0.00    -0.346 N 
ATOM     13  HN  UNL d   1      -0.055   4.829   0.029  1.00  0.00     0.167 HD
ATOM     14  C   UNL d   1      -1.199   3.153   0.032  0.00  0.00     0.154 A 
ATOM     15  O   UNL d   1      -2.354   3.857   0.049  0.00  0.00    -0.293 OA
ENDROOT
BRANCH   1  16
ATOM     16  C   UNL d   1      -7.171   1.490   1.740  0.00  0.00     0.115 C 
ATOM     17  C   UNL d   1      -8.315   1.966   0.841  0.00  0.00     0.026 C 
BRANCH  16  18
ATOM     18  C   UNL d   1      -7.452   1.892   3.165  0.00  0.00     0.181 C 
ATOM     19  O   UNL d   1      -6.682   2.616   3.751  0.00  0.00    -0.647 OA
ATOM     20  O   UNL d   1      -8.557   1.447   3.783  0.00  0.00    -0.647 OA
ENDBRANCH  16  18
ENDBRANCH   1  16
TORSDOF 2
