REMARK  9 active torsions:
REMARK  status: ('A' for Active; 'I' for Inactive)
REMARK    1  A    between atoms: C_4  and  O_32 
REMARK    2  A    between atoms: C_10  and  C_11 
REMARK    3  A    between atoms: C_10  and  O_21 
REMARK    4  A    between atoms: C_11  and  C_13 
REMARK    5  A    between atoms: C_13  and  O_14 
REMARK    6  A    between atoms: O_14  and  C_15 
REMARK    7  A    between atoms: C_15  and  C_17 
REMARK    8  A    between atoms: C_17  and  C_18 
REMARK    9  A    between atoms: C_18  and  C_19 
ROOT
ATOM      1  C   UNL d   1      -2.612   0.126  -0.757  0.00  0.00     0.019 C 
ATOM      2  C   UNL d   1      -2.115   1.573  -0.753  0.00  0.00     0.001 C 
ATOM      3  C   UNL d   1      -3.005   2.429  -1.638  0.00  0.00     0.045 C 
ATOM      4  C   UNL d   1      -2.531   2.269  -3.090  0.00  0.00     0.124 C 
ATOM      5  C   UNL d   1      -1.923   0.879  -3.294  0.00  0.00     0.035 C 
ATOM      6  C   UNL d   1      -0.608   0.750  -2.544  0.00  0.00    -0.002 C 
ATOM      7  C   UNL d   1      -0.670   1.638  -1.310  0.00  0.00     0.002 C 
ATOM      8  C   UNL d   1       0.156   1.108  -0.127  0.00  0.00     0.009 C 
ATOM      9  C   UNL d   1      -0.520   1.757   1.107  0.00  0.00     0.047 C 
ATOM     10  C   UNL d   1      -1.974   2.087   0.682  0.00  0.00     0.128 C 
ATOM     11  C   UNL d   1       0.564   1.176  -3.431  0.00  0.00     0.010 C 
ATOM     12  C   UNL d   1       0.718   0.120  -4.530  0.00  0.00     0.036 C 
ATOM     13  C   UNL d   1      -0.577   0.029  -5.292  0.00  0.00    -0.064 C 
ATOM     14  C   UNL d   1      -0.551  -0.513  -6.527  0.00  0.00     0.058 C 
ATOM     15  C   UNL d   1      -1.865  -0.588  -7.220  0.00  0.00     0.172 C 
ATOM     16  O   UNL d   1      -1.991  -0.367  -8.410  0.00  0.00    -0.289 OA
ATOM     17  C   UNL d   1      -3.013  -0.954  -6.348  0.00  0.00     0.052 C 
ATOM     18  C   UNL d   1      -3.006  -0.411  -5.118  0.00  0.00    -0.009 C 
ATOM     19  C   UNL d   1      -1.876   0.520  -4.751  0.00  0.00     0.004 C 
ATOM     20  C   UNL d   1      -2.168   1.826  -5.492  0.00  0.00     0.025 C 
ENDROOT
BRANCH  10  21
ATOM     21  C   UNL d   1      -2.203   3.575   0.726  0.00  0.00     0.185 C 
ATOM     22  O   UNL d   1      -1.280   4.334   0.547  0.00  0.00    -0.292 OA
BRANCH  21  23
ATOM     23  C   UNL d   1      -3.583   4.118   0.994  0.00  0.00     0.260 C 
BRANCH  23  24
ATOM     24  O   UNL d   1      -3.543   5.569   0.986  0.00  0.00    -0.314 OA
BRANCH  24  25
ATOM     25  C   UNL d   1      -4.700   6.212   1.210  0.00  0.00     0.259 C 
ATOM     26  O   UNL d   1      -5.712   5.583   1.407  0.00  0.00    -0.265 OA
BRANCH  25  27
ATOM     27  C   UNL d   1      -4.735   7.719   1.217  0.00  0.00     0.121 C 
BRANCH  27  28
ATOM     28  C   UNL d   1      -6.163   8.194   1.494  0.00  0.00     0.123 C 
BRANCH  28  29
ATOM     29  C   UNL d   1      -6.199   9.701   1.501  0.00  0.00     0.172 C 
ATOM     30  O   UNL d   1      -5.186  10.330   1.304  0.00  0.00    -0.648 OA
ATOM     31  O   UNL d   1      -7.355  10.344   1.725  0.00  0.00    -0.648 OA
ENDBRANCH  28  29
ENDBRANCH  27  28
ENDBRANCH  25  27
ENDBRANCH  24  25
ENDBRANCH  23  24
ENDBRANCH  21  23
ENDBRANCH  10  21
BRANCH  10  32
ATOM     32  O   UNL d   1      -2.902   1.418   1.538  0.00  0.00    -0.381 OA
ATOM     33  H   UNL d   1      -2.859   1.702   2.462  0.00  0.00     0.211 HD
ENDBRANCH  10  32
BRANCH   4  34
ATOM     34  O   UNL d   1      -1.547   3.264  -3.379  0.00  0.00    -0.395 OA
ATOM     35  H   UNL d   1      -1.862   4.172  -3.270  0.00  0.00     0.210 HD
ENDBRANCH   4  34
TORSDOF 9
