REMARK  2 active torsions:
REMARK  status: ('A' for Active; 'I' for Inactive)
REMARK    1  A    between atoms: C_2  and  C_3 
REMARK    2  A    between atoms: C_3  and  C_12 
ROOT
ATOM      1  C   UNL d   1       1.100   3.152   0.009  0.00  0.00     0.121 A 
ATOM      2  C   UNL d   1       1.160   1.637  -0.000  0.00  0.00     0.243 A 
ATOM      3  O   UNL d   1       2.221   1.050  -0.014  0.00  0.00    -0.272 OA
ATOM      4  N   UNL d   1      -0.011   0.966   0.007  0.00  0.00    -0.278 N 
ATOM      5  C   UNL d   1      -1.190   1.599   0.017  0.00  0.00     0.329 A 
ATOM      6  O   UNL d   1      -2.195   0.917   0.018  0.00  0.00    -0.247 OA
ATOM      7  N   UNL d   1      -1.342   2.928   0.031  0.00  0.00    -0.278 N 
ATOM      8  C   UNL d   1      -0.286   3.768   0.025  0.00  0.00     0.243 A 
ATOM      9  O   UNL d   1      -0.439   4.971   0.033  0.00  0.00    -0.272 OA
ATOM     10  H   UNL d   1       0.002  -0.004   0.002  0.00  0.00     0.173 HD
ATOM     11  H   UNL d   1      -2.238   3.299   0.041  0.00  0.00     0.173 HD
ENDROOT
BRANCH   1  12
ATOM     12  C   UNL d   1       1.858   3.652   1.240  0.00  0.00     0.024 C 
ATOM     13  C   UNL d   1       1.202   3.091   2.504  0.00  0.00     0.007 C 
ENDBRANCH   1  12
BRANCH   1  14
ATOM     14  C   UNL d   1       1.830   3.665  -1.235  0.00  0.00     0.024 C 
ATOM     15  C   UNL d   1       1.145   3.118  -2.489  0.00  0.00     0.007 C 
ENDBRANCH   1  14
TORSDOF 2
