REMARK  6 active torsions:
REMARK  status: ('A' for Active; 'I' for Inactive)
REMARK    1  A    between atoms: C_4  and  C_17 
REMARK    2  A    between atoms: N_7  and  C1*_8 
REMARK    3  A    between atoms: C2*_9  and  O2*_16 
REMARK    4  A    between atoms: C3*_10  and  O3*_15 
REMARK    5  A    between atoms: C4*_11  and  C5*_13 
REMARK    6  A    between atoms: C5*_13  and  O5*_14 
REMARK       I    between atoms: C_17  and  N_19 
ROOT
ATOM      1  C   UNL d   1       1.931   4.914   1.396  0.00  0.00     0.205 A 
ATOM      2  N   UNL d   1       2.916   5.718   1.084  0.00  0.00    -0.332 N 
ATOM      3  HN  UNL d   1       2.921   6.733   1.181  1.00  0.00     0.168 HD
ATOM      4  C   UNL d   1       3.919   4.956   0.613  0.00  0.00     0.190 A 
ATOM      5  N   UNL d   1       3.527   3.701   0.652  0.00  0.00    -0.275 N 
ATOM      6  HN  UNL d   1       4.082   2.895   0.363  1.00  0.00     0.189 HD
ATOM      7  N   UNL d   1       2.326   3.658   1.117  0.00  0.00    -0.254 N 
ENDROOT
BRANCH   7   8
ATOM      8  C1* UNL d   1       1.528   2.445   1.316  0.00  0.00     0.276 C 
ATOM      9  O4* UNL d   1       0.165   2.789   1.645  0.00  0.00    -0.352 OA
ATOM     10  C4* UNL d   1      -0.611   1.612   1.332  0.00  0.00     0.179 C 
ATOM     11  C3* UNL d   1      -0.013   1.086   0.008  0.00  0.00     0.182 C 
ATOM     12  C2* UNL d   1       1.427   1.647  -0.003  0.00  0.00     0.200 C 
BRANCH  10  13
ATOM     13  C5* UNL d   1      -2.084   1.979   1.142  0.00  0.00     0.198 C 
BRANCH  13  14
ATOM     14  O5* UNL d   1      -2.648   2.352   2.401  0.00  0.00    -0.398 OA
ATOM     15  H5* UNL d   1      -3.582   2.598   2.356  0.00  0.00     0.209 HD
ENDBRANCH  13  14
ENDBRANCH  10  13
BRANCH  11  16
ATOM     16  O3* UNL d   1      -0.752   1.581  -1.110  0.00  0.00    -0.390 OA
ATOM     17  H3* UNL d   1      -0.400   1.306  -1.968  0.00  0.00     0.210 HD
ENDBRANCH  11  16
BRANCH  12  18
ATOM     18  O2* UNL d   1       1.621   2.506  -1.128  0.00  0.00    -0.388 OA
ATOM     19  H2* UNL d   1       1.509   2.067  -1.982  0.00  0.00     0.210 HD
ENDBRANCH  12  18
ENDBRANCH   7   8
BRANCH   4  20
ATOM     20  C   UNL d   1       5.233   5.442   0.140  0.00  0.00     0.284 C 
ATOM     21  O   UNL d   1       6.063   4.653  -0.266  0.00  0.00    -0.265 OA
ATOM     22  N   UNL d   1       5.510   6.761   0.159  0.00  0.00    -0.363 N 
ATOM     23  H   UNL d   1       4.847   7.391   0.483  0.00  0.00     0.159 HD
ATOM     24  H   UNL d   1       6.372   7.080  -0.151  0.00  0.00     0.159 HD
ENDBRANCH   4  20
TORSDOF 6
