REMARK  6 active torsions:
REMARK  status: ('A' for Active; 'I' for Inactive)
REMARK    1  A    between atoms: C_2  and  N_3 
REMARK       I    between atoms: N_6  and  C_11 
REMARK       I    between atoms: C_11  and  N_13 
REMARK    2  A    between atoms: N_13  and  CA_14 
REMARK    3  A    between atoms: CA_14  and  C_15 
REMARK    4  A    between atoms: CA_14  and  C_21 
REMARK       I    between atoms: C_21  and  N_23 
REMARK    5  A    between atoms: N_23  and  CA_24 
REMARK    6  A    between atoms: CA_29  and  C_34 
ROOT
ATOM      1  CA  UNL d   1       2.982   4.466  -3.509  0.00  0.00     0.211 C 
ENDROOT
BRANCH   1   2
ATOM      2  N   UNL d   1       3.680   5.559  -4.189  0.00  0.00    -0.325 N 
ATOM      3  C   UNL d   1       4.415   5.308  -5.290  0.00  0.00     0.326 C 
ATOM      4  N   UNL d   1       5.144   6.291  -5.853  0.00  0.00    -0.260 N 
ATOM      5  O   UNL d   1       4.419   4.194  -5.777  0.00  0.00    -0.247 OA
ATOM      6  C   UNL d   1       5.240   7.596  -5.197  0.00  0.00     0.157 C 
ATOM      7  C   UNL d   1       5.780   6.073  -7.021  0.00  0.00     0.319 C 
ATOM      8  C   UNL d   1       6.648   8.171  -5.359  0.00  0.00     0.146 C 
ATOM      9  N   UNL d   1       7.045   8.159  -6.767  0.00  0.00    -0.343 N 
ATOM     10  C   UNL d   1       6.693   7.129  -7.561  0.00  0.00     0.312 C 
ATOM     11  O   UNL d   1       7.110   7.058  -8.699  0.00  0.00    -0.262 OA
ATOM     12  O   UNL d   1       5.614   5.035  -7.627  0.00  0.00    -0.262 OA
ATOM     13  H   UNL d   1       3.615   6.464  -3.846  0.00  0.00     0.165 HD
BRANCH   9  14
ATOM     14  C   UNL d   1       7.829   9.269  -7.314  0.00  0.00     0.122 C 
ATOM     15  C   UNL d   1       6.884  10.343  -7.855  0.00  0.00     0.026 C 
ENDBRANCH   9  14
ENDBRANCH   1   2
BRANCH   1  16
ATOM     16  C   UNL d   1       3.925   3.787  -2.549  0.00  0.00    -0.026 A 
ATOM     17  C   UNL d   1       3.908   2.410  -2.421  0.00  0.00     0.010 A 
ATOM     18  C   UNL d   1       4.773   1.788  -1.541  0.00  0.00     0.001 A 
ATOM     19  C   UNL d   1       5.655   2.541  -0.789  0.00  0.00     0.000 A 
ATOM     20  C   UNL d   1       5.672   3.917  -0.918  0.00  0.00     0.001 A 
ATOM     21  C   UNL d   1       4.811   4.540  -1.802  0.00  0.00     0.010 A 
ENDBRANCH   1  16
BRANCH   1  22
ATOM     22  C   UNL d   1       1.803   5.018  -2.749  0.00  0.00     0.245 C 
ATOM     23  O   UNL d   1       1.570   6.208  -2.773  0.00  0.00    -0.271 OA
ATOM     24  N   UNL d   1       1.009   4.190  -2.042  0.00  0.00    -0.344 N 
ATOM     25  H   UNL d   1       1.195   3.238  -2.023  0.00  0.00     0.163 HD
BRANCH  24  26
ATOM     26  CA  UNL d   1      -0.137   4.727  -1.304  0.00  0.00     0.199 A 
ATOM     27  C   UNL d   1      -0.020   4.633   0.217  0.00  0.00     0.227 A 
ATOM     28  N   UNL d   1      -1.008   3.735   0.390  0.00  0.00    -0.219 NA
ATOM     29  O   UNL d   1       0.715   5.186   1.008  0.00  0.00    -0.277 OA
ATOM     30  C   UNL d   1      -1.260   3.719  -1.063  0.00  0.00     0.160 A 
ATOM     31  CA  UNL d   1      -0.720   2.435   0.998  0.00  0.00     0.186 C 
ATOM     32  S   UNL d   1      -0.800   2.002  -1.550  0.00  0.00    -0.135 SA
ATOM     33  C   UNL d   1       0.091   1.547   0.006  0.00  0.00     0.029 C 
ATOM     34  C   UNL d   1      -0.061   0.059   0.328  0.00  0.00     0.029 C 
ATOM     35  C   UNL d   1       1.563   1.959  -0.046  0.00  0.00     0.029 C 
BRANCH  31  36
ATOM     36  C   UNL d   1       0.083   2.639   2.256  0.00  0.00     0.193 C 
ATOM     37  O   UNL d   1       0.272   3.755   2.679  0.00  0.00    -0.647 OA
ATOM     38  OXT UNL d   1       0.590   1.580   2.908  0.00  0.00    -0.647 OA
ENDBRANCH  31  36
ENDBRANCH  24  26
ENDBRANCH   1  22
TORSDOF 6
