REMARK  9 active torsions:
REMARK  status: ('A' for Active; 'I' for Inactive)
REMARK    1  A    between atoms: O_2  and  C_3 
REMARK    2  A    between atoms: C_5  and  C_13 
REMARK    3  A    between atoms: C_7  and  O_11 
REMARK    4  A    between atoms: C_8  and  O_9 
REMARK    5  A    between atoms: C_13  and  O_15 
REMARK    6  A    between atoms: O_15  and  C_16 
REMARK    7  A    between atoms: C_35  and  C_39 
REMARK    8  A    between atoms: C_36  and  O_37 
REMARK    9  A    between atoms: C_39  and  O_41 
ROOT
ATOM      1  C   UNL d   1       2.203  -3.455  -6.468  0.00  0.00     0.162 C 
ATOM      2  C   UNL d   1       2.818  -2.445  -7.440  0.00  0.00     0.042 C 
ATOM      3  C   UNL d   1       1.717  -1.542  -7.995  0.00  0.00     0.019 C 
ATOM      4  C   UNL d   1       2.317  -0.516  -8.957  0.00  0.00     0.240 C 
ATOM      5  C   UNL d   1       1.770   1.440 -10.290  0.00  0.00     0.240 C 
ATOM      6  C   UNL d   1       0.671   2.493 -10.492  0.00  0.00     0.069 C 
ATOM      7  C   UNL d   1      -0.580   1.786 -10.949  0.00  0.00    -0.019 A 
ATOM      8  C   UNL d   1      -1.770   2.334 -11.562  0.00  0.00    -0.001 A 
ATOM      9  C   UNL d   1      -2.143   3.634 -11.919  0.00  0.00     0.014 A 
ATOM     10  C   UNL d   1      -3.379   3.789 -12.496  0.00  0.00     0.001 A 
ATOM     11  C   UNL d   1      -4.228   2.717 -12.718  0.00  0.00     0.002 A 
ATOM     12  C   UNL d   1      -3.886   1.421 -12.373  0.00  0.00     0.030 A 
ATOM     13  C   UNL d   1      -2.636   1.232 -11.787  0.00  0.00     0.043 A 
ATOM     14  N   UNL d   1      -1.996   0.113 -11.337  0.00  0.00    -0.357 N 
ATOM     15  H   UNL d   1      -2.359  -0.786 -11.365  0.00  0.00     0.166 HD
ATOM     16  C   UNL d   1      -0.765   0.450 -10.843  0.00  0.00     0.048 A 
ATOM     17  C   UNL d   1       0.273  -0.474 -10.259  0.00  0.00     0.238 C 
ATOM     18  C   UNL d   1      -0.391  -1.489  -9.327  0.00  0.00     0.045 C 
ATOM     19  C   UNL d   1       0.691  -2.399  -8.740  0.00  0.00     0.010 C 
ATOM     20  C   UNL d   1       0.065  -3.398  -7.767  0.00  0.00     0.121 C 
ATOM     21  C   UNL d   1       1.161  -4.304  -7.200  0.00  0.00     0.164 C 
ATOM     22  N   UNL d   1       1.221   0.339  -9.464  0.00  0.00    -0.061 N 
ATOM     23  H   UNL d   1       0.720   0.743  -8.665  0.00  0.00     0.280 HD
ENDROOT
BRANCH   1  24
ATOM     24  O   UNL d   1       1.565  -2.746  -5.374  0.00  0.00    -0.309 OA
BRANCH  24  25
ATOM     25  C   UNL d   1       1.647  -3.307  -4.151  0.00  0.00     0.294 C 
ATOM     26  O   UNL d   1       2.142  -4.409  -4.020  0.00  0.00    -0.259 OA
BRANCH  25  27
ATOM     27  C   UNL d   1       1.137  -2.583  -2.972  0.00  0.00     0.045 A 
ATOM     28  C   UNL d   1       0.657  -1.277  -3.106  0.00  0.00     0.057 A 
ATOM     29  C   UNL d   1       0.173  -0.603  -2.000  0.00  0.00     0.105 A 
ATOM     30  C   UNL d   1       0.174  -1.221  -0.752  0.00  0.00     0.135 A 
ATOM     31  C   UNL d   1       0.651  -2.522  -0.616  0.00  0.00     0.105 A 
ATOM     32  C   UNL d   1       1.131  -3.202  -1.719  0.00  0.00     0.057 A 
BRANCH  29  33
ATOM     33  O   UNL d   1      -0.299   0.665  -2.131  0.00  0.00    -0.353 OA
ATOM     34  C   UNL d   1      -0.368   1.199  -3.454  0.00  0.00     0.210 C 
ENDBRANCH  29  33
BRANCH  30  35
ATOM     35  O   UNL d   1      -0.298  -0.554   0.334  0.00  0.00    -0.351 OA
ATOM     36  C   UNL d   1       0.645   0.217   1.082  0.00  0.00     0.210 C 
ENDBRANCH  30  35
BRANCH  31  37
ATOM     37  O   UNL d   1       0.645  -3.123   0.604  0.00  0.00    -0.353 OA
ATOM     38  C   UNL d   1       1.149  -4.459   0.671  0.00  0.00     0.210 C 
ENDBRANCH  31  37
ENDBRANCH  25  27
ENDBRANCH  24  25
ENDBRANCH   1  24
BRANCH  21  39
ATOM     39  O   UNL d   1       0.582  -5.238  -6.287  0.00  0.00    -0.387 OA
ATOM     40  C   UNL d   1       1.270  -6.489  -6.220  0.00  0.00     0.202 C 
ENDBRANCH  21  39
BRANCH  20  41
ATOM     41  C   UNL d   1      -0.604  -2.653  -6.641  0.00  0.00     0.265 C 
ATOM     42  O   UNL d   1      -0.510  -1.451  -6.572  0.00  0.00    -0.265 OA
BRANCH  41  43
ATOM     43  O   UNL d   1      -1.306  -3.325  -5.714  0.00  0.00    -0.326 OA
ATOM     44  C   UNL d   1      -1.977  -2.538  -4.696  0.00  0.00     0.213 C 
ENDBRANCH  41  43
ENDBRANCH  20  41
TORSDOF 9
