REMARK  1 active torsions:
REMARK  status: ('A' for Active; 'I' for Inactive)
REMARK    1  A    between atoms: C_10  and  O_12 
ROOT
ATOM      1  C   UNL d   1      -0.858  -3.580  -0.533  0.00  0.00     0.018 C 
ATOM      2  C   UNL d   1       0.302  -2.732  -1.064  0.00  0.00    -0.009 C 
ATOM      3  C   UNL d   1       1.580  -2.933  -0.250  0.00  0.00     0.013 C 
ATOM      4  C   UNL d   1       1.489  -2.305   1.127  0.00  0.00     0.007 C 
ATOM      5  C   UNL d   1       1.129  -0.828   1.100  0.00  0.00     0.001 C 
ATOM      6  C   UNL d   1       0.007  -0.506   0.154  0.00  0.00    -0.005 C 
ATOM      7  C   UNL d   1      -0.060  -1.244  -1.152  0.00  0.00     0.001 C 
ATOM      8  C   UNL d   1       0.748  -0.642  -2.299  0.00  0.00     0.009 C 
ATOM      9  C   UNL d   1       1.298  -1.832  -3.114  0.00  0.00     0.038 C 
ATOM     10  C   UNL d   1       0.651  -3.100  -2.532  0.00  0.00     0.062 C 
ATOM     11  C   UNL d   1      -0.619  -3.453  -3.307  0.00  0.00     0.046 C 
ATOM     12  C   UNL d   1      -0.257   0.985  -0.027  0.00  0.00     0.006 C 
ATOM     13  C   UNL d   1       1.030   1.784  -0.192  0.00  0.00     0.006 C 
ATOM     14  C   UNL d   1       1.940   1.541   1.010  0.00  0.00     0.005 C 
ATOM     15  C   UNL d   1       2.353   0.069   1.066  0.00  0.00    -0.014 C 
ATOM     16  C   UNL d   1       3.122  -0.116   2.390  0.00  0.00     0.188 C 
ATOM     17  O   UNL d   1       4.243   0.785   2.452  0.00  0.00    -0.321 OA
ATOM     18  C   UNL d   1       4.262   1.966   1.838  0.00  0.00     0.259 C 
ATOM     19  O   UNL d   1       5.218   2.710   2.033  0.00  0.00    -0.265 OA
ATOM     20  C   UNL d   1       3.173   2.435   0.911  0.00  0.00     0.116 C 
ATOM     21  C   UNL d   1       3.297  -0.270  -0.082  0.00  0.00     0.018 C 
ENDROOT
BRANCH  10  22
ATOM     22  O   UNL d   1       1.571  -4.190  -2.567  0.00  0.00    -0.389 OA
ATOM     23  H   UNL d   1       1.824  -4.462  -3.460  0.00  0.00     0.210 HD
ENDBRANCH  10  22
TORSDOF 1
