REMARK  5 active torsions:
REMARK  status: ('A' for Active; 'I' for Inactive)
REMARK    1  A    between atoms: O_2  and  C_3 
REMARK    2  A    between atoms: C_9  and  C_14 
REMARK    3  A    between atoms: C_14  and  C_15 
REMARK    4  A    between atoms: C_14  and  O_24 
REMARK    5  A    between atoms: C_21  and  C_22 
ROOT
ATOM      1  C   UNL d   1      -0.730   1.580   1.266  0.00  0.00     0.183 C 
ENDROOT
BRANCH   1   2
ATOM      2  C   UNL d   1      -2.177   1.163   1.225  0.00  0.00    -0.014 A 
ATOM      3  C   UNL d   1      -2.592  -0.068   1.767  0.00  0.00     0.002 A 
ATOM      4  C   UNL d   1      -3.964  -0.419   1.706  0.00  0.00     0.043 A 
ATOM      5  C   UNL d   1      -1.675  -0.949   2.362  0.00  0.00     0.051 A 
ATOM      6  C   UNL d   1      -4.381  -1.648   2.247  0.00  0.00     0.033 A 
ATOM      7  N   UNL d   1      -4.839   0.418   1.141  0.00  0.00    -0.365 N 
ATOM      8  C   UNL d   1      -3.470  -2.480   2.818  0.00  0.00     0.039 A 
ATOM      9  C   UNL d   1      -2.116  -2.135   2.877  0.00  0.00     0.069 A 
ATOM     10  C   UNL d   1      -4.457   1.566   0.636  0.00  0.00     0.089 A 
ATOM     11  HN  UNL d   1      -5.825   0.158   1.101  1.00  0.00     0.165 HD
ATOM     12  C   UNL d   1      -3.125   1.973   0.666  0.00  0.00     0.027 A 
BRANCH   9  13
ATOM     13  O   UNL d   1      -1.230  -2.988   3.454  0.00  0.00    -0.356 OA
ATOM     14  C   UNL d   1      -1.752  -4.212   3.974  0.00  0.00     0.210 C 
ENDBRANCH   9  13
ENDBRANCH   1   2
BRANCH   1  15
ATOM     15  C   UNL d   1      -0.066   1.251  -0.073  0.00  0.00     0.221 C 
ATOM     16  C   UNL d   1      -0.022  -0.269  -0.261  0.00  0.00     0.041 C 
ATOM     17  C   UNL d   1       1.441  -0.708  -0.399  0.00  0.00    -0.002 C 
ATOM     18  C   UNL d   1       2.058   0.015  -1.602  0.00  0.00     0.037 C 
ATOM     19  C   UNL d   1       2.199  -0.287   0.867  0.00  0.00     0.033 C 
ATOM     20  C   UNL d   1       1.957   1.527  -1.376  0.00  0.00     0.244 C 
ATOM     21  N   UNL d   1       1.302   1.812  -0.082  0.00  0.00    -0.063 N 
ATOM     22  C   UNL d   1       2.094   1.232   1.024  0.00  0.00     0.236 C 
ATOM     23  H   UNL d   1       1.246   2.829   0.046  0.00  0.00     0.280 HD
BRANCH  18  24
ATOM     24  C   UNL d   1       1.309  -0.359  -2.855  0.00  0.00    -0.030 C 
ATOM     25  C   UNL d   1       1.938  -0.943  -3.844  0.00  0.00     0.007 C 
ENDBRANCH  18  24
ENDBRANCH   1  15
BRANCH   1  26
ATOM     26  O   UNL d   1      -0.645   2.986   1.507  0.00  0.00    -0.389 OA
ATOM     27  H   UNL d   1      -1.139   3.524   0.873  0.00  0.00     0.210 HD
ENDBRANCH   1  26
TORSDOF 5
