REMARK  9 active torsions:
REMARK  status: ('A' for Active; 'I' for Inactive)
REMARK    1  A    between atoms: C_8  and  C_23 
REMARK    2  A    between atoms: C_8  and  O_33 
REMARK    3  A    between atoms: C_11  and  O_21 
REMARK    4  A    between atoms: C_23  and  C_25 
REMARK    5  A    between atoms: C_25  and  O_26 
REMARK    6  A    between atoms: O_26  and  C_27 
REMARK    7  A    between atoms: C_27  and  C_29 
REMARK    8  A    between atoms: C_29  and  C_30 
REMARK    9  A    between atoms: C_30  and  C_31 
ROOT
ATOM      1  C   UNL d   1      -4.451   4.300   1.331  0.00  0.00     0.015 C 
ATOM      2  C   UNL d   1      -3.657   3.375   0.401  0.00  0.00     0.012 C 
ATOM      3  C   UNL d   1      -2.201   3.833   0.373  0.00  0.00     0.014 C 
ATOM      4  C   UNL d   1      -1.422   3.145   1.482  0.00  0.00    -0.001 C 
ATOM      5  C   UNL d   1      -0.066   3.765   1.746  0.00  0.00     0.002 C 
ATOM      6  C   UNL d   1      -0.175   5.303   1.579  0.00  0.00     0.009 C 
ATOM      7  C   UNL d   1       0.161   5.552   0.095  0.00  0.00     0.047 C 
ATOM      8  C   UNL d   1       1.163   4.444  -0.292  0.00  0.00     0.128 C 
ATOM      9  C   UNL d   1       1.038   3.351   0.769  0.00  0.00     0.001 C 
ATOM     10  C   UNL d   1       0.964   1.939   0.269  0.00  0.00     0.045 C 
ATOM     11  C   UNL d   1      -0.427   1.362   0.035  0.00  0.00     0.124 C 
ATOM     12  C   UNL d   1      -1.327   1.646   1.221  0.00  0.00     0.035 C 
ATOM     13  C   UNL d   1      -2.696   1.027   1.166  0.00  0.00     0.004 C 
ATOM     14  C   UNL d   1      -3.820   1.957   0.860  0.00  0.00    -0.060 C 
ATOM     15  C   UNL d   1      -5.080   1.483   0.959  0.00  0.00     0.059 C 
ATOM     16  C   UNL d   1      -5.293   0.190   1.649  0.00  0.00     0.172 C 
ATOM     17  O   UNL d   1      -6.320  -0.459   1.492  0.00  0.00    -0.289 OA
ATOM     18  C   UNL d   1      -4.228  -0.272   2.573  0.00  0.00     0.052 C 
ATOM     19  C   UNL d   1      -2.983   0.196   2.389  0.00  0.00    -0.009 C 
ATOM     20  C   UNL d   1      -2.709   0.010   0.030  0.00  0.00     0.025 C 
ATOM     21  C   UNL d   1       2.363   3.423   1.588  0.00  0.00     0.019 C 
ENDROOT
BRANCH   8  22
ATOM     22  C   UNL d   1       0.889   3.967  -1.689  0.00  0.00     0.185 C 
ATOM     23  O   UNL d   1      -0.228   4.041  -2.143  0.00  0.00    -0.292 OA
BRANCH  22  24
ATOM     24  C   UNL d   1       2.006   3.398  -2.524  0.00  0.00     0.260 C 
BRANCH  24  25
ATOM     25  O   UNL d   1       1.490   3.012  -3.825  0.00  0.00    -0.314 OA
BRANCH  25  26
ATOM     26  C   UNL d   1       2.364   2.483  -4.695  0.00  0.00     0.259 C 
ATOM     27  O   UNL d   1       3.523   2.347  -4.380  0.00  0.00    -0.265 OA
BRANCH  26  28
ATOM     28  C   UNL d   1       1.901   2.060  -6.065  0.00  0.00     0.121 C 
BRANCH  28  29
ATOM     29  C   UNL d   1       3.085   1.494  -6.852  0.00  0.00     0.123 C 
BRANCH  29  30
ATOM     30  C   UNL d   1       2.622   1.070  -8.222  0.00  0.00     0.172 C 
ATOM     31  O   UNL d   1       1.463   1.206  -8.537  0.00  0.00    -0.648 OA
ATOM     32  O   UNL d   1       3.496   0.541  -9.092  0.00  0.00    -0.648 OA
ENDBRANCH  29  30
ENDBRANCH  28  29
ENDBRANCH  26  28
ENDBRANCH  25  26
ENDBRANCH  24  25
ENDBRANCH  22  24
ENDBRANCH   8  22
BRANCH   8  33
ATOM     33  O   UNL d   1       2.494   4.992  -0.242  0.00  0.00    -0.381 OA
ATOM     34  H   UNL d   1       2.655   5.694  -0.887  0.00  0.00     0.211 HD
ENDBRANCH   8  33
BRANCH  11  35
ATOM     35  O   UNL d   1      -0.960   1.819  -1.201  0.00  0.00    -0.395 OA
ATOM     36  H   UNL d   1      -0.480   1.503  -1.978  0.00  0.00     0.210 HD
ENDBRANCH  11  35
TORSDOF 9
