REMARK  3 active torsions:
REMARK  status: ('A' for Active; 'I' for Inactive)
REMARK    1  A    between atoms: C_6  and  O_8 
REMARK    2  A    between atoms: O_8  and  C_9 
REMARK    3  A    between atoms: C_9  and  C_10 
ROOT
ATOM      1  O   UNL d   1      -1.202   2.048   0.019  0.00  0.00    -0.349 OA
ENDROOT
BRANCH   1   2
ATOM      2  C   UNL d   1      -0.017   1.383   0.010  0.00  0.00     0.069 A 
ATOM      3  C   UNL d   1       0.002  -0.004   0.002  0.00  0.00     0.043 A 
ATOM      4  C   UNL d   1       1.208  -0.677  -0.013  0.00  0.00    -0.059 A 
ATOM      5  C   UNL d   1       2.396   0.030  -0.021  0.00  0.00     0.013 A 
ATOM      6  C   UNL d   1       1.230  -2.184  -0.021  0.00  0.00     0.048 C 
ATOM      7  C   UNL d   1       2.380   1.413  -0.013  0.00  0.00    -0.059 A 
ATOM      8  C   UNL d   1       3.677   2.181  -0.020  0.00  0.00     0.048 C 
ATOM      9  C   UNL d   1       1.177   2.091   0.002  0.00  0.00     0.043 A 
ENDBRANCH   1   2
BRANCH   1  10
ATOM     10  C   UNL d   1      -1.145   3.475   0.026  0.00  0.00     0.210 C 
BRANCH  10  11
ATOM     11  C   UNL d   1      -2.566   4.042   0.036  0.00  0.00     0.175 A 
ATOM     12  O   UNL d   1      -3.221   3.757   1.306  0.00  0.00    -0.295 OA
ATOM     13  C   UNL d   1      -3.537   4.906   1.914  0.00  0.00     0.361 A 
ATOM     14  N   UNL d   1      -3.182   5.999   1.224  0.00  0.00    -0.334 N 
ATOM     15  O   UNL d   1      -4.093   4.955   2.993  0.00  0.00    -0.239 OA
ATOM     16  C   UNL d   1      -2.534   5.582  -0.033  0.00  0.00     0.159 A 
ATOM     17  H   UNL d   1      -3.327   6.916   1.506  0.00  0.00     0.164 HD
ENDBRANCH  10  11
ENDBRANCH   1  10
TORSDOF 3
