REMARK  4 active torsions:
REMARK  status: ('A' for Active; 'I' for Inactive)
REMARK    1  A    between atoms: C_2  and  C_3 
REMARK    2  A    between atoms: C_2  and  S_9 
REMARK       I    between atoms: C_3  and  N_5 
REMARK    3  A    between atoms: N_5  and  C_6 
REMARK    4  A    between atoms: C_6  and  C_7 
ROOT
ATOM      1  C   UNL d   1      -0.222   1.232   2.431  0.00  0.00     0.231 C 
ATOM      2  O   UNL d   1       0.774   0.548   2.529  0.00  0.00    -0.272 OA
ATOM      3  N   UNL d   1      -0.698   1.558   1.213  0.00  0.00    -0.350 N 
ATOM      4  H   UNL d   1      -1.495   2.106   1.135  0.00  0.00     0.163 HD
ENDROOT
BRANCH   1   5
ATOM      5  C   UNL d   1      -0.927   1.718   3.671  0.00  0.00     0.132 C 
ATOM      6  C   UNL d   1       0.104   2.015   4.761  0.00  0.00     0.031 C 
BRANCH   5   7
ATOM      7  S   UNL d   1      -2.074   0.440   4.255  0.00  0.00    -0.168 SA
ATOM      8  H   UNL d   1      -1.282  -0.618   4.504  0.00  0.00     0.102 HD
ENDBRANCH   5   7
ENDBRANCH   1   5
BRANCH   3   9
ATOM      9  C   UNL d   1      -0.013   1.086   0.008  0.00  0.00     0.235 C 
BRANCH   9  10
ATOM     10  C   UNL d   1      -0.742   1.585  -1.213  0.00  0.00     0.191 C 
ATOM     11  O   UNL d   1      -1.732   2.266  -1.089  0.00  0.00    -0.647 OA
ATOM     12  O   UNL d   1      -0.290   1.274  -2.438  0.00  0.00    -0.647 OA
ENDBRANCH   9  10
ENDBRANCH   3   9
TORSDOF 4
