REMARK  4 active torsions:
REMARK  status: ('A' for Active; 'I' for Inactive)
REMARK    1  A    between atoms: N_3  and  C_10 
REMARK    2  A    between atoms: C_8  and  N_9 
REMARK    3  A    between atoms: C_13  and  C_15 
REMARK    4  A    between atoms: C_15  and  O_16 
ROOT
ATOM      1  C   UNL d   1      -2.389   4.270   3.930  0.00  0.00     0.059 A 
ATOM      2  C   UNL d   1      -1.477   4.057   2.951  0.00  0.00     0.102 A 
ATOM      3  N   UNL d   1      -1.407   4.928   1.905  0.00  0.00    -0.282 N 
ATOM      4  C   UNL d   1      -2.231   5.991   1.849  0.00  0.00     0.329 A 
ATOM      5  O   UNL d   1      -2.151   6.763   0.908  0.00  0.00    -0.246 OA
ATOM      6  N   UNL d   1      -3.136   6.210   2.801  0.00  0.00    -0.299 N 
ATOM      7  HN  UNL d   1      -3.755   7.018   2.732  1.00  0.00     0.171 HD
ATOM      8  C   UNL d   1      -3.241   5.390   3.838  0.00  0.00     0.082 A 
ENDROOT
BRANCH   3   9
ATOM      9  C   UNL d   1      -0.426   4.709   0.840  0.00  0.00     0.242 C 
ATOM     10  O   UNL d   1       0.323   3.519   1.116  0.00  0.00    -0.348 OA
ATOM     11  C   UNL d   1       1.145   3.085   0.008  0.00  0.00     0.209 C 
ATOM     12  S   UNL d   1       0.176   3.663  -1.449  0.00  0.00    -0.131 SA
ATOM     13  C   UNL d   1      -1.164   4.536  -0.524  0.00  0.00     0.131 C 
BRANCH  11  14
ATOM     14  C   UNL d   1       1.286   1.562  -0.002  0.00  0.00     0.207 C 
BRANCH  14  15
ATOM     15  O   UNL d   1      -0.011   0.963   0.007  0.00  0.00    -0.398 OA
ATOM     16  H   UNL d   1       0.002  -0.004   0.002  0.00  0.00     0.209 HD
ENDBRANCH  14  15
ENDBRANCH  11  14
ENDBRANCH   3   9
BRANCH   8  17
ATOM     17  N   UNL d   1      -4.175   5.630   4.819  0.00  0.00    -0.288 NA
ATOM     18  H   UNL d   1      -4.804   4.854   4.878  0.00  0.00     0.125 HD
ATOM     19  H   UNL d   1      -4.760   6.401   4.753  0.00  0.00     0.125 HD
ENDBRANCH   8  17
TORSDOF 4
