REMARK  5 active torsions:
REMARK  status: ('A' for Active; 'I' for Inactive)
REMARK    1  A    between atoms: CA_3  and  C_20 
REMARK    2  A    between atoms: CA_7  and  N_10 
REMARK       I    between atoms: N_10  and  C_11 
REMARK    3  A    between atoms: C_11  and  CA_13 
REMARK    4  A    between atoms: CA_13  and  C_14 
REMARK    5  A    between atoms: CA_13  and  N_26 
ROOT
ATOM      1  N   UNL d   1      -2.379  -3.572  -2.874  0.00  0.00    -0.344 N 
ATOM      2  C   UNL d   1      -3.315  -3.628  -3.842  0.00  0.00     0.253 C 
ATOM      3  O   UNL d   1      -3.659  -2.615  -4.413  0.00  0.00    -0.271 OA
ATOM      4  H   UNL d   1      -2.103  -4.382  -2.418  0.00  0.00     0.163 HD
ENDROOT
BRANCH   1   5
ATOM      5  CA  UNL d   1      -1.777  -2.286  -2.512  0.00  0.00     0.199 C 
ATOM      6  C   UNL d   1      -1.228  -2.226  -1.093  0.00  0.00     0.160 C 
ATOM      7  N   UNL d   1       0.118  -1.909  -1.604  0.00  0.00    -0.219 NA
ATOM      8  S   UNL d   1      -1.700  -0.707  -0.169  0.00  0.00    -0.135 SA
ATOM      9  CA  UNL d   1       0.615  -0.561  -1.315  0.00  0.00     0.186 C 
ATOM     10  C   UNL d   1      -0.318  -2.161  -2.861  0.00  0.00     0.227 C 
ATOM     11  C   UNL d   1       0.002  -0.004   0.002  0.00  0.00     0.029 C 
ATOM     12  C   UNL d   1      -0.019   1.526   0.010  0.00  0.00     0.029 C 
ATOM     13  C   UNL d   1       0.719  -0.558   1.235  0.00  0.00     0.029 C 
ATOM     14  O   UNL d   1       0.270  -2.254  -3.917  0.00  0.00    -0.277 OA
BRANCH   9  15
ATOM     15  C   UNL d   1       2.116  -0.604  -1.181  0.00  0.00     0.193 C 
ATOM     16  O   UNL d   1       2.669  -1.646  -0.919  0.00  0.00    -0.647 OA
ATOM     17  OXT UNL d   1       2.837   0.515  -1.352  0.00  0.00    -0.647 OA
ENDBRANCH   9  15
ENDBRANCH   1   5
BRANCH   2  18
ATOM     18  CA  UNL d   1      -3.934  -4.951  -4.215  0.00  0.00     0.307 C 
BRANCH  18  19
ATOM     19  C   UNL d   1      -5.002  -5.306  -3.213  0.00  0.00    -0.019 A 
ATOM     20  C   UNL d   1      -4.728  -6.206  -2.200  0.00  0.00     0.010 A 
ATOM     21  C   UNL d   1      -5.707  -6.532  -1.282  0.00  0.00     0.001 A 
ATOM     22  C   UNL d   1      -6.961  -5.957  -1.375  0.00  0.00     0.000 A 
ATOM     23  C   UNL d   1      -7.235  -5.057  -2.387  0.00  0.00     0.001 A 
ATOM     24  C   UNL d   1      -6.254  -4.728  -3.304  0.00  0.00     0.010 A 
ENDBRANCH  18  19
BRANCH  18  25
ATOM     25  N   UNL d   1      -4.511  -4.845  -5.567  0.00  0.00    -0.062 N 
ATOM     26  H1  UNL d   1      -4.896  -5.743  -5.854  0.00  0.00     0.275 HD
ATOM     27  H2  UNL d   1      -5.247  -4.141  -5.578  0.00  0.00     0.275 HD
ATOM     28  H3  UNL d   1      -3.775  -4.570  -6.228  0.00  0.00     0.275 HD
ENDBRANCH  18  25
ENDBRANCH   2  18
TORSDOF 5
