REMARK  2 active torsions:
REMARK  status: ('A' for Active; 'I' for Inactive)
REMARK    1  A    between atoms: C_2  and  C_4 
REMARK    2  A    between atoms: C_20  and  O_22 
ROOT
ATOM      1  C   UNL d   1       2.785   3.253  -0.649  0.00  0.00     0.064 C 
ATOM      2  C   UNL d   1       2.072   4.202   0.336  0.00  0.00     0.013 C 
ATOM      3  C   UNL d   1       0.643   4.375  -0.228  0.00  0.00     0.006 C 
ATOM      4  C   UNL d   1       0.455   3.261  -1.257  0.00  0.00    -0.000 C 
ATOM      5  C   UNL d   1       1.655   2.310  -1.141  0.00  0.00    -0.023 C 
ATOM      6  C   UNL d   1       1.419   1.260  -0.057  0.00  0.00     0.089 C 
ATOM      7  C   UNL d   1       0.080   0.596  -0.244  0.00  0.00     0.133 C 
ATOM      8  O   UNL d   1       0.009  -0.618  -0.242  0.00  0.00    -0.298 OA
ATOM      9  C   UNL d   1      -1.165   1.422  -0.440  0.00  0.00     0.068 C 
ATOM     10  C   UNL d   1      -0.896   2.624  -1.304  0.00  0.00     0.002 C 
ATOM     11  C   UNL d   1      -2.022   3.649  -1.338  0.00  0.00     0.006 C 
ATOM     12  C   UNL d   1      -2.600   3.924   0.046  0.00  0.00     0.006 C 
ATOM     13  C   UNL d   1      -3.061   2.606   0.663  0.00  0.00    -0.003 C 
ATOM     14  C   UNL d   1      -1.862   1.688   0.888  0.00  0.00    -0.029 C 
ATOM     15  C   UNL d   1      -2.387   0.352   1.442  0.00  0.00     0.013 C 
ATOM     16  C   UNL d   1      -3.150   0.570   2.744  0.00  0.00     0.032 C 
ATOM     17  C   UNL d   1      -4.319   1.531   2.534  0.00  0.00     0.118 C 
ATOM     18  C   UNL d   1      -3.813   2.857   1.965  0.00  0.00     0.037 C 
ATOM     19  C   UNL d   1      -0.897   2.284   1.908  0.00  0.00     0.016 C 
ATOM     20  C   UNL d   1       2.004   1.669  -2.489  0.00  0.00     0.016 C 
ENDROOT
BRANCH   1  21
ATOM     21  C   UNL d   1       3.892   2.503   0.031  0.00  0.00     0.128 C 
ATOM     22  C   UNL d   1       5.017   1.919  -0.784  0.00  0.00     0.091 C 
ATOM     23  O   UNL d   1       3.881   2.367   1.230  0.00  0.00    -0.298 OA
ENDBRANCH   1  21
BRANCH  17  24
ATOM     24  O   UNL d   1      -5.262   0.951   1.630  0.00  0.00    -0.396 OA
ATOM     25  H   UNL d   1      -5.635   0.113   1.935  0.00  0.00     0.210 HD
ENDBRANCH  17  24
TORSDOF 2
