REMARK  5 active torsions:
REMARK  status: ('A' for Active; 'I' for Inactive)
REMARK    1  A    between atoms: C_3  and  C_9 
REMARK    2  A    between atoms: C_9  and  S_10 
REMARK    3  A    between atoms: S_10  and  C_11 
REMARK    4  A    between atoms: C_11  and  C_12 
REMARK    5  A    between atoms: C_12  and  N_13 
REMARK       I    between atoms: N_13  and  C_14 
REMARK       I    between atoms: C_14  and  N_15 
ROOT
ATOM      1  N   UNL d   1       1.367   3.850   0.030  0.00  0.00    -0.225 N 
ATOM      2  C   UNL d   1       2.567   4.503   0.002  0.00  0.00     0.682 C 
ATOM      3  N   UNL d   1       2.601   5.824   0.027  0.00  0.00    -0.126 N 
ATOM      4  HN  UNL d   1       1.734   6.358  -0.037  1.00  0.00     0.197 HD
ATOM      5  C   UNL d   1       3.787   6.469   0.138  0.00  0.00     0.196 C 
ATOM      6  N   UNL d   1       4.782   7.010   0.232  0.00  0.00    -0.171 NA
ATOM      7  N   UNL d   1       3.731   3.791  -0.053  0.00  0.00    -0.230 N 
ATOM      8  C   UNL d   1       5.019   4.486   0.012  0.00  0.00     0.165 C 
ATOM      9  H   UNL d   1       0.540   4.356   0.069  0.00  0.00     0.177 HD
ATOM     10  H   UNL d   1       3.705   2.825  -0.134  0.00  0.00     0.177 HD
ENDROOT
BRANCH   1  11
ATOM     11  C   UNL d   1       1.329   2.386   0.002  0.00  0.00     0.148 C 
BRANCH  11  12
ATOM     12  C   UNL d   1      -0.125   1.913   0.043  0.00  0.00     0.094 C 
BRANCH  12  13
ATOM     13  S   UNL d   1      -0.172   0.100   0.008  0.00  0.00    -0.161 SA
BRANCH  13  14
ATOM     14  C   UNL d   1      -1.942  -0.294   0.061  0.00  0.00     0.133 C 
BRANCH  14  15
ATOM     15  C   UNL d   1      -2.125  -1.790   0.037  0.00  0.00     0.041 A 
ATOM     16  C   UNL d   1      -2.183  -2.598   1.114  0.00  0.00     0.029 A 
ATOM     17  C   UNL d   1      -2.078  -2.179   2.558  0.00  0.00     0.070 C 
ATOM     18  N   UNL d   1      -2.356  -3.872   0.644  0.00  0.00    -0.354 N 
ATOM     19  C   UNL d   1      -2.397  -3.799  -0.704  0.00  0.00     0.180 A 
ATOM     20  H   UNL d   1      -2.436  -4.702   1.196  0.00  0.00     0.166 HD
ATOM     21  N   UNL d   1      -2.263  -2.550  -1.059  0.00  0.00    -0.353 N 
ATOM     22  HN  UNL d   1      -2.264  -2.206  -2.020  1.00  0.00     0.166 HD
ENDBRANCH  14  15
ENDBRANCH  13  14
ENDBRANCH  12  13
ENDBRANCH  11  12
ENDBRANCH   1  11
TORSDOF 5
