REMARK  5 active torsions:
REMARK  status: ('A' for Active; 'I' for Inactive)
REMARK    1  A    between atoms: C_5  and  N_22 
REMARK    2  A    between atoms: N_12  and  C1*_13 
REMARK    3  A    between atoms: C3*_15  and  O3*_20 
REMARK    4  A    between atoms: C4*_16  and  C5*_18 
REMARK    5  A    between atoms: C5*_18  and  O5*_19 
ROOT
ATOM      1  C   UNL d   1      -4.075  -0.481   0.018  0.00  0.00     0.188 A 
ATOM      2  N   UNL d   1      -2.778  -0.373   0.012  0.00  0.00    -0.346 N 
ATOM      3  HN  UNL d   1      -2.122  -1.153   0.005  1.00  0.00     0.167 HD
ATOM      4  C   UNL d   1      -2.436   0.938   0.019  0.00  0.00     0.116 A 
ATOM      5  C   UNL d   1      -1.219   1.641   0.017  0.00  0.00     0.111 A 
ATOM      6  N   UNL d   1      -1.254   2.970   0.030  0.00  0.00    -0.321 N 
ATOM      7  HN  UNL d   1      -0.380   3.494   0.036  1.00  0.00     0.169 HD
ATOM      8  C   UNL d   1      -2.403   3.623   0.035  0.00  0.00     0.181 A 
ATOM      9  N   UNL d   1      -3.567   3.006   0.037  0.00  0.00    -0.316 N 
ATOM     10  HN  UNL d   1      -4.429   3.552   0.044  1.00  0.00     0.170 HD
ATOM     11  C   UNL d   1      -3.630   1.678   0.029  0.00  0.00     0.143 A 
ATOM     12  N   UNL d   1      -4.646   0.757   0.028  0.00  0.00    -0.300 N 
ATOM     13 CL   UNL d   1      -2.377   5.359   0.046  0.00  0.00    -0.045 Cl
ENDROOT
BRANCH  12  14
ATOM     14  C1* UNL d   1      -6.082   1.049   0.037  0.00  0.00     0.233 C 
ATOM     15  O4* UNL d   1      -6.812  -0.070  -0.491  0.00  0.00    -0.356 OA
ATOM     16  C4* UNL d   1      -7.187  -0.897   0.632  0.00  0.00     0.176 C 
ATOM     17  C3* UNL d   1      -7.587   0.132   1.720  0.00  0.00     0.153 C 
ATOM     18  C2* UNL d   1      -6.562   1.269   1.485  0.00  0.00     0.088 C 
BRANCH  16  19
ATOM     19  C5* UNL d   1      -8.376  -1.789   0.272  0.00  0.00     0.198 C 
BRANCH  19  20
ATOM     20  O5* UNL d   1      -7.952  -2.800  -0.645  0.00  0.00    -0.398 OA
ATOM     21  H5* UNL d   1      -8.656  -3.405  -0.918  0.00  0.00     0.209 HD
ENDBRANCH  19  20
ENDBRANCH  16  19
BRANCH  17  22
ATOM     22  O3* UNL d   1      -8.922   0.599   1.515  0.00  0.00    -0.393 OA
ATOM     23  H3* UNL d   1      -9.188   1.308   2.115  0.00  0.00     0.210 HD
ENDBRANCH  17  22
ENDBRANCH  12  14
BRANCH   5  24
ATOM     24  N   UNL d   1      -0.011   0.966   0.007  0.00  0.00    -0.287 NA
ATOM     25  H   UNL d   1       0.055   0.391   0.823  0.00  0.00     0.125 HD
ATOM     26  H   UNL d   1       0.822   1.462   0.002  0.00  0.00     0.125 HD
ENDBRANCH   5  24
TORSDOF 5
