REMARK  9 active torsions:
REMARK  status: ('A' for Active; 'I' for Inactive)
REMARK    1  A    between atoms: C_3  and  O_37 
REMARK    2  A    between atoms: C_4  and  N_44 
REMARK    3  A    between atoms: C_6  and  O_8 
REMARK    4  A    between atoms: O_8  and  C_9 
REMARK    5  A    between atoms: C_11  and  C_33 
REMARK    6  A    between atoms: C_11  and  O_36 
REMARK    7  A    between atoms: C_15  and  O_32 
REMARK    8  A    between atoms: C_18  and  O_19 
REMARK    9  A    between atoms: C_26  and  O_30 
ROOT
ATOM      1  C   UNL d   1      -1.192   3.653   2.494  0.00  0.00     0.164 C 
ATOM      2  C   UNL d   1      -1.874   4.965   2.110  0.00  0.00     0.083 C 
ATOM      3  C   UNL d   1      -2.177   5.744   3.396  0.00  0.00     0.124 C 
ATOM      4  C   UNL d   1      -0.855   6.228   3.986  0.00  0.00     0.088 C 
ATOM      5  C   UNL d   1       0.124   5.088   4.103  0.00  0.00    -0.009 A 
ATOM      6  C   UNL d   1      -0.029   3.909   3.417  0.00  0.00     0.014 A 
ATOM      7  C   UNL d   1       0.917   2.885   3.561  0.00  0.00     0.090 A 
ATOM      8  C   UNL d   1       2.016   3.049   4.401  0.00  0.00     0.066 A 
ATOM      9  C   UNL d   1       2.172   4.258   5.108  0.00  0.00     0.066 A 
ATOM     10  C   UNL d   1       1.224   5.268   4.953  0.00  0.00     0.088 A 
ATOM     11  C   UNL d   1       3.328   4.448   6.000  0.00  0.00     0.197 A 
ATOM     12  O   UNL d   1       3.462   5.490   6.612  0.00  0.00    -0.286 OA
ATOM     13  C   UNL d   1       4.325   3.368   6.151  0.00  0.00     0.032 A 
ATOM     14  C   UNL d   1       5.422   3.538   6.991  0.00  0.00     0.017 A 
ATOM     15  C   UNL d   1       6.354   2.522   7.129  0.00  0.00     0.004 A 
ATOM     16  C   UNL d   1       6.205   1.336   6.441  0.00  0.00     0.038 A 
ATOM     17  C   UNL d   1       5.116   1.144   5.596  0.00  0.00     0.083 A 
ATOM     18  C   UNL d   1       4.168   2.161   5.446  0.00  0.00     0.062 A 
ATOM     19  C   UNL d   1       3.010   1.972   4.553  0.00  0.00     0.200 A 
ATOM     20  O   UNL d   1       2.874   0.928   3.944  0.00  0.00    -0.286 OA
ENDROOT
BRANCH   1  21
ATOM     21  O   UNL d   1      -0.721   3.005   1.311  0.00  0.00    -0.351 OA
BRANCH  21  22
ATOM     22  C   UNL d   1      -1.659   2.093   0.735  0.00  0.00     0.263 C 
ATOM     23  C   UNL d   1      -0.954   1.231  -0.316  0.00  0.00     0.096 C 
ATOM     24  C   UNL d   1      -0.432   2.132  -1.439  0.00  0.00     0.219 C 
ATOM     25  C   UNL d   1      -1.603   2.925  -2.029  0.00  0.00     0.177 C 
ATOM     26  C   UNL d   1      -2.283   3.722  -0.913  0.00  0.00     0.151 C 
ATOM     27  C   UNL d   1      -3.490   4.469  -1.483  0.00  0.00     0.042 C 
ATOM     28  O   UNL d   1      -2.717   2.827   0.113  0.00  0.00    -0.354 OA
BRANCH  24  29
ATOM     29  N   UNL d   1       0.188   1.324  -2.504  0.00  0.00    -0.072 N 
ATOM     30  H   UNL d   1       0.951   0.768  -2.121  0.00  0.00     0.274 HD
ATOM     31  H   UNL d   1      -0.505   0.706  -2.921  0.00  0.00     0.274 HD
ATOM     32  H   UNL d   1       0.560   1.949  -3.229  0.00  0.00     0.274 HD
ENDBRANCH  24  29
BRANCH  25  33
ATOM     33  O   UNL d   1      -2.544   2.022  -2.613  0.00  0.00    -0.391 OA
ATOM     34  H   UNL d   1      -3.313   2.456  -3.006  0.00  0.00     0.210 HD
ENDBRANCH  25  33
ENDBRANCH  21  22
ENDBRANCH   1  21
BRANCH   7  35
ATOM     35  O   UNL d   1       0.760   1.724   2.878  0.00  0.00    -0.359 OA
ATOM     36  H   UNL d   1       1.248   1.690   2.043  0.00  0.00     0.217 HD
ENDBRANCH   7  35
BRANCH   3  37
ATOM     37  C   UNL d   1      -3.055   6.927   3.078  0.00  0.00     0.157 C 
ATOM     38  O   UNL d   1      -3.046   7.405   1.968  0.00  0.00    -0.295 OA
ATOM     39  C   UNL d   1      -3.943   7.514   4.144  0.00  0.00     0.094 C 
ENDBRANCH   3  37
BRANCH   3  40
ATOM     40  O   UNL d   1      -2.840   4.891   4.331  0.00  0.00    -0.382 OA
ATOM     41  H   UNL d   1      -3.061   5.322   5.168  0.00  0.00     0.211 HD
ENDBRANCH   3  40
BRANCH  10  42
ATOM     42  O   UNL d   1       1.366   6.434   5.630  0.00  0.00    -0.359 OA
ATOM     43  H   UNL d   1       0.942   6.439   6.499  0.00  0.00     0.217 HD
ENDBRANCH  10  42
BRANCH  17  44
ATOM     44  O   UNL d   1       4.975  -0.024   4.922  0.00  0.00    -0.355 OA
ATOM     45  C   UNL d   1       5.982  -1.017   5.125  0.00  0.00     0.210 C 
ENDBRANCH  17  44
TORSDOF 9
