REMARK  2 active torsions:
REMARK  status: ('A' for Active; 'I' for Inactive)
REMARK    1  A    between atoms: C_10  and  C_11 
REMARK       I    between atoms: C_11  and  N_13 
REMARK    2  A    between atoms: N_13  and  C_14 
ROOT
ATOM      1  C   UNL d   1       6.857  -2.050   3.036  0.00  0.00     0.016 C 
ATOM      2  C   UNL d   1       5.629  -1.149   3.237  0.00  0.00    -0.028 C 
ATOM      3  C   UNL d   1       4.332  -1.918   3.023  0.00  0.00     0.011 C 
ATOM      4  C   UNL d   1       4.055  -2.213   1.561  0.00  0.00     0.007 C 
ATOM      5  C   UNL d   1       4.053  -0.975   0.680  0.00  0.00     0.004 C 
ATOM      6  C   UNL d   1       5.225  -0.070   0.940  0.00  0.00    -0.004 C 
ATOM      7  C   UNL d   1       5.701   0.100   2.352  0.00  0.00    -0.001 C 
ATOM      8  C   UNL d   1       5.079   1.265   3.123  0.00  0.00     0.007 C 
ATOM      9  C   UNL d   1       4.758   0.723   4.534  0.00  0.00     0.015 C 
ATOM     10  C   UNL d   1       5.608  -0.556   4.672  0.00  0.00     0.086 C 
ATOM     11  C   UNL d   1       5.181   1.253   0.186  0.00  0.00     0.007 C 
ATOM     12  C   UNL d   1       3.798   1.891   0.157  0.00  0.00     0.026 C 
ATOM     13  C   UNL d   1       2.770   0.890  -0.352  0.00  0.00     0.097 C 
ATOM     14  C   UNL d   1       2.697  -0.307   0.603  0.00  0.00    -0.002 C 
ATOM     15  C   UNL d   1       1.667  -1.271   0.048  0.00  0.00    -0.009 C 
ATOM     16  C   UNL d   1       0.552  -0.772  -0.490  0.00  0.00     0.071 C 
ATOM     17  C   UNL d   1       0.362   0.689  -0.546  0.00  0.00     0.241 C 
ATOM     18  O   UNL d   1      -0.752   1.162  -0.655  0.00  0.00    -0.269 OA
ATOM     19  N   UNL d   1       1.445   1.496  -0.469  0.00  0.00    -0.352 N 
ATOM     20  C   UNL d   1       2.195   0.159   1.968  0.00  0.00     0.022 C 
ATOM     21  H   UNL d   1       1.344   2.459  -0.492  0.00  0.00     0.163 HD
ENDROOT
BRANCH  10  22
ATOM     22  C   UNL d   1       5.004  -1.499   5.669  0.00  0.00     0.223 C 
ATOM     23  O   UNL d   1       3.808  -1.486   5.869  0.00  0.00    -0.273 OA
ATOM     24  N   UNL d   1       5.790  -2.361   6.344  0.00  0.00    -0.353 N 
ATOM     25  H   UNL d   1       6.747  -2.372   6.184  0.00  0.00     0.163 HD
BRANCH  24  26
ATOM     26  C   UNL d   1       5.200  -3.283   7.318  0.00  0.00     0.022 C 
ATOM     27  C   UNL d   1       4.181  -4.183   6.616  0.00  0.00     0.037 C 
ATOM     28  C   UNL d   1       6.302  -4.145   7.937  0.00  0.00     0.037 C 
ATOM     29  C   UNL d   1       4.501  -2.482   8.418  0.00  0.00     0.037 C 
ENDBRANCH  24  26
ENDBRANCH  10  22
TORSDOF 2
