REMARK  4 active torsions:
REMARK  status: ('A' for Active; 'I' for Inactive)
REMARK    1  A    between atoms: C_2  and  C_3 
REMARK    2  A    between atoms: C_3  and  C_4 
REMARK    3  A    between atoms: C_3  and  C_10 
REMARK    4  A    between atoms: C_11  and  O_21 
ROOT
ATOM      1  C   UNL d   1      -0.419   6.464   0.182  0.00  0.00     0.060 A 
ATOM      2  C   UNL d   1       0.865   6.479  -0.289  0.00  0.00     0.091 A 
ATOM      3  C   UNL d   1       1.675   5.262  -0.127  0.00  0.00     0.032 A 
ATOM      4  C   UNL d   1       2.993   5.208  -0.584  0.00  0.00     0.017 A 
ATOM      5  C   UNL d   1       3.725   4.054  -0.416  0.00  0.00     0.001 A 
ATOM      6  C   UNL d   1       3.158   2.950   0.204  0.00  0.00     0.003 A 
ATOM      7  C   UNL d   1       1.856   2.988   0.656  0.00  0.00     0.038 A 
ATOM      8  C   UNL d   1       1.102   4.145   0.501  0.00  0.00     0.092 A 
ATOM      9  O   UNL d   1      -0.173   4.202   0.943  0.00  0.00    -0.274 OA
ATOM     10  C   UNL d   1      -0.920   5.308   0.798  0.00  0.00     0.298 A 
ATOM     11  O   UNL d   1      -2.066   5.307   1.214  0.00  0.00    -0.259 OA
ENDROOT
BRANCH   1  12
ATOM     12  C   UNL d   1      -1.292   7.685   0.041  0.00  0.00     0.060 C 
BRANCH  12  13
ATOM     13  C   UNL d   1      -2.219   7.792   1.253  0.00  0.00     0.010 C 
ATOM     14  C   UNL d   1      -1.420   7.534   2.532  0.00  0.00     0.006 C 
ENDBRANCH  12  13
BRANCH  12  15
ATOM     15  C   UNL d   1      -2.117   7.570  -1.215  0.00  0.00    -0.049 A 
ATOM     16  C   UNL d   1      -1.880   8.422  -2.278  0.00  0.00     0.008 A 
ATOM     17  C   UNL d   1      -2.637   8.316  -3.430  0.00  0.00     0.001 A 
ATOM     18  C   UNL d   1      -3.630   7.359  -3.519  0.00  0.00     0.000 A 
ATOM     19  C   UNL d   1      -3.866   6.507  -2.456  0.00  0.00     0.001 A 
ATOM     20  C   UNL d   1      -3.107   6.610  -1.306  0.00  0.00     0.008 A 
ENDBRANCH  12  15
ENDBRANCH   1  12
BRANCH   2  21
ATOM     21  O   UNL d   1       1.374   7.580  -0.887  0.00  0.00    -0.359 OA
ATOM     22  H   UNL d   1       1.238   7.607  -1.844  0.00  0.00     0.217 HD
ENDBRANCH   2  21
TORSDOF 4
