REMARK  14 active torsions:
REMARK  status: ('A' for Active; 'I' for Inactive)
REMARK    1  A    between atoms: C_2  and  C_3 
REMARK    2  A    between atoms: C_3  and  C_4 
REMARK    3  A    between atoms: C_4  and  C_5 
REMARK    4  A    between atoms: C_5  and  C_6 
REMARK    5  A    between atoms: C_6  and  C_7 
REMARK    6  A    between atoms: C_6  and  O_24 
REMARK    7  A    between atoms: C_8  and  C_9 
REMARK    8  A    between atoms: C_10  and  O_23 
REMARK    9  A    between atoms: C_14  and  C_15 
REMARK   10  A    between atoms: C_15  and  C_16 
REMARK   11  A    between atoms: C_17  and  C_18 
REMARK   12  A    between atoms: C_18  and  C_19 
REMARK   13  A    between atoms: C_19  and  C_20 
REMARK   14  A    between atoms: C_20  and  C_21 
ROOT
ATOM      1  C   UNL d   1      -0.627  -2.103   1.133  0.00  0.00     0.048 C 
ATOM      2  C   UNL d   1      -2.015  -2.606   1.604  0.00  0.00     0.133 C 
ATOM      3  C   UNL d   1      -2.981  -1.627   0.893  0.00  0.00     0.111 C 
ATOM      4  C   UNL d   1      -2.269  -0.287   0.946  0.00  0.00     0.134 C 
ATOM      5  O   UNL d   1      -2.787   0.802   0.885  0.00  0.00    -0.297 OA
ATOM      6  C   UNL d   1      -0.788  -0.569   1.091  0.00  0.00     0.069 C 
ENDROOT
BRANCH   1   7
ATOM      7  C   UNL d   1       0.445  -2.496   2.116  0.00  0.00    -0.020 C 
ATOM      8  C   UNL d   1       1.496  -3.163   1.708  0.00  0.00     0.001 C 
BRANCH   8   9
ATOM      9  C   UNL d   1       2.568  -3.556   2.692  0.00  0.00     0.140 C 
BRANCH   9  10
ATOM     10  C   UNL d   1       2.706  -5.080   2.713  0.00  0.00     0.036 C 
BRANCH  10  11
ATOM     11  C   UNL d   1       3.704  -5.486   3.799  0.00  0.00     0.003 C 
BRANCH  11  12
ATOM     12  C   UNL d   1       3.843  -7.010   3.820  0.00  0.00    -0.000 C 
BRANCH  12  13
ATOM     13  C   UNL d   1       4.840  -7.416   4.906  0.00  0.00    -0.005 C 
ATOM     14  C   UNL d   1       4.979  -8.940   4.927  0.00  0.00     0.005 C 
ENDBRANCH  12  13
ENDBRANCH  11  12
ENDBRANCH  10  11
ENDBRANCH   9  10
BRANCH   9  15
ATOM     15  O   UNL d   1       3.811  -2.970   2.302  0.00  0.00    -0.392 OA
ATOM     16  H   UNL d   1       4.115  -3.241   1.425  0.00  0.00     0.210 HD
ENDBRANCH   9  15
ENDBRANCH   8   9
ENDBRANCH   1   7
BRANCH   6  17
ATOM     17  C   UNL d   1      -0.027   0.004  -0.106  0.00  0.00     0.040 C 
BRANCH  17  18
ATOM     18  C   UNL d   1      -0.089   1.510  -0.066  0.00  0.00    -0.030 C 
ATOM     19  C   UNL d   1       1.014   2.213  -0.141  0.00  0.00    -0.031 C 
BRANCH  19  20
ATOM     20  C   UNL d   1       2.325   1.530  -0.434  0.00  0.00     0.027 C 
BRANCH  20  21
ATOM     21  C   UNL d   1       2.994   2.205  -1.633  0.00  0.00     0.014 C 
BRANCH  21  22
ATOM     22  C   UNL d   1       4.325   1.512  -1.930  0.00  0.00     0.113 C 
BRANCH  22  23
ATOM     23  C   UNL d   1       4.984   2.176  -3.111  0.00  0.00     0.172 C 
ATOM     24  O   UNL d   1       4.445   3.108  -3.659  0.00  0.00    -0.648 OA
ATOM     25  O   UNL d   1       6.171   1.732  -3.555  0.00  0.00    -0.648 OA
ENDBRANCH  22  23
ENDBRANCH  21  22
ENDBRANCH  20  21
ENDBRANCH  19  20
ENDBRANCH  17  18
ENDBRANCH   6  17
BRANCH   2  26
ATOM     26  O   UNL d   1      -2.137  -2.506   3.024  0.00  0.00    -0.394 OA
ATOM     27  H   UNL d   1      -2.988  -2.809   3.368  0.00  0.00     0.210 HD
ENDBRANCH   2  26
TORSDOF 14
