REMARK  8 active torsions:
REMARK  status: ('A' for Active; 'I' for Inactive)
REMARK    1  A    between atoms: S_2  and  C_5 
REMARK    2  A    between atoms: C_8  and  C_11 
REMARK    3  A    between atoms: C_11  and  C_12 
REMARK    4  A    between atoms: C_11  and  O_16 
REMARK    5  A    between atoms: C_12  and  C_13 
REMARK    6  A    between atoms: C_12  and  N_15 
REMARK    7  A    between atoms: C_13  and  O_14 
REMARK       I    between atoms: N_15  and  C_20 
REMARK    8  A    between atoms: C_20  and  C_22 
ROOT
ATOM      1  C   UNK d   1       1.286   1.562  -0.002  0.00  0.00     0.176 C 
ENDROOT
BRANCH   1   2
ATOM      2  C   UNK d   1       2.028   1.134  -1.242  0.00  0.00    -0.028 A 
ATOM      3  C   UNK d   1       2.890   2.014  -1.870  0.00  0.00     0.011 A 
ATOM      4  C   UNK d   1       3.571   1.621  -3.007  0.00  0.00     0.024 A 
ATOM      5  C   UNK d   1       3.390   0.349  -3.516  0.00  0.00     0.058 A 
ATOM      6  C   UNK d   1       2.529  -0.531  -2.888  0.00  0.00     0.024 A 
ATOM      7  C   UNK d   1       1.852  -0.140  -1.748  0.00  0.00     0.011 A 
BRANCH   5   8
ATOM      8  S   UNK d   1       4.258  -0.152  -4.965  0.00  0.00     0.171 S 
ATOM      9  C   UNK d   1       5.809  -0.869  -4.356  0.00  0.00     0.167 C 
ATOM     10  O   UNK d   1       3.445  -1.163  -5.544  0.00  0.00    -0.223 OA
ATOM     11  O   UNK d   1       4.520   1.056  -5.667  0.00  0.00    -0.223 OA
ENDBRANCH   5   8
ENDBRANCH   1   2
BRANCH   1  12
ATOM     12  C   UNK d   1       2.064   1.114   1.238  0.00  0.00     0.141 C 
BRANCH  12  13
ATOM     13  C   UNK d   1       1.251   1.437   2.493  0.00  0.00     0.192 C 
BRANCH  13  14
ATOM     14  O   UNK d   1      -0.044   0.844   2.388  0.00  0.00    -0.399 OA
ATOM     15  H   UNK d   1      -0.615   1.008   3.151  0.00  0.00     0.209 HD
ENDBRANCH  13  14
ENDBRANCH  12  13
BRANCH  12  16
ATOM     16  N   UNK d   1       2.303  -0.330   1.169  0.00  0.00    -0.349 N 
ATOM     17  C   UNK d   0       3.346  -0.872   1.827  0.00  0.00     0.251 C 
ATOM     18  O   UNK d   0       4.088  -0.165   2.476  0.00  0.00    -0.271 OA
ATOM     19  H   UNK d   1       1.710  -0.895   0.650  0.00  0.00     0.163 HD
BRANCH  17  20
ATOM     20  C   UNK d   0       3.592  -2.357   1.756  0.00  0.00     0.269 C 
ATOM     21 CL   UNK d   0       4.960  -2.792   2.848  0.00  0.00    -0.098 Cl
ATOM     22 CL   UNK d   0       2.107  -3.238   2.274  0.00  0.00    -0.098 Cl
ENDBRANCH  17  20
ENDBRANCH  12  16
ENDBRANCH   1  12
BRANCH   1  23
ATOM     23  O   UNK d   1      -0.011   0.963   0.007  0.00  0.00    -0.389 OA
ATOM     24  H   UNK d   1       0.002  -0.004   0.002  0.00  0.00     0.210 HD
ENDBRANCH   1  23
TORSDOF 8
