REMARK  9 active torsions:
REMARK  status: ('A' for Active; 'I' for Inactive)
REMARK    1  A    between atoms: C_2  and  C_12 
REMARK    2  A    between atoms: C_5  and  N_7 
REMARK       I    between atoms: C_9  and  N_10 
REMARK       I    between atoms: C_9  and  N_11 
REMARK    3  A    between atoms: C_12  and  S_13 
REMARK    4  A    between atoms: S_13  and  C_14 
REMARK    5  A    between atoms: C_14  and  C_15 
REMARK    6  A    between atoms: C_15  and  C_16 
REMARK    7  A    between atoms: C_16  and  N_23 
REMARK    8  A    between atoms: N_17  and  S_19 
REMARK    9  A    between atoms: S_19  and  N_22 
ROOT
ATOM      1  C   UNL d   1      -6.374   4.409   2.973  0.00  0.00     0.131 C 
ENDROOT
BRANCH   1   2
ATOM      2  C   UNL d   1      -6.961   4.821   4.299  0.00  0.00     0.027 A 
ATOM      3  C   UNL d   1      -6.866   6.108   4.713  0.00  0.00     0.079 A 
ATOM      4  S   UNL d   1      -7.705   6.014   6.289  0.00  0.00    -0.063 SA
ATOM      5  C   UNL d   1      -8.092   4.270   6.228  0.00  0.00     0.164 A 
ATOM      6  N   UNL d   1      -7.571   3.931   5.054  0.00  0.00    -0.339 N 
ATOM      7  HN  UNL d   1      -7.645   2.966   4.732  1.00  0.00     0.168 HD
BRANCH   5   8
ATOM      8  N   UNL d   1      -8.748   3.500   7.136  0.00  0.00    -0.171 N 
ATOM      9  C   UNL d   1      -8.839   2.200   6.953  0.00  0.00     0.671 C 
ATOM     10  N   UNL d   1      -8.149   1.602   5.930  0.00  0.00    -0.235 N 
ATOM     11  N   UNL d   1      -9.623   1.443   7.785  0.00  0.00    -0.235 N 
ATOM     12  H   UNL d   1      -7.351   2.022   5.573  0.00  0.00     0.174 HD
ATOM     13  H   UNL d   1      -8.460   0.759   5.563  0.00  0.00     0.174 HD
ATOM     14  H   UNL d   1     -10.110   1.866   8.509  0.00  0.00     0.174 HD
ATOM     15  H   UNL d   1      -9.689   0.485   7.650  0.00  0.00     0.174 HD
ATOM     16  HN  UNL d   1      -9.171   3.929   7.959  1.00  0.00     0.186 HD
ENDBRANCH   5   8
ENDBRANCH   1   2
BRANCH   1  17
ATOM     17  S   UNL d   1      -4.653   3.888   3.210  0.00  0.00    -0.163 SA
BRANCH  17  18
ATOM     18  C   UNL d   1      -4.099   3.431   1.544  0.00  0.00     0.081 C 
BRANCH  18  19
ATOM     19  C   UNL d   1      -2.643   2.966   1.600  0.00  0.00     0.087 C 
BRANCH  19  20
ATOM     20  C   UNL d   1      -2.183   2.586   0.216  0.00  0.00     0.086 C 
ATOM     21  N   UNL d   1      -2.996   2.685  -0.785  0.00  0.00    -0.257 N 
ATOM     22  HN  UNL d   1      -3.949   3.020  -0.638  1.00  0.00     0.181 HD
BRANCH  21  23
ATOM     23  S   UNL d   1      -2.491   2.268  -2.306  0.00  0.00     0.318 S 
ATOM     24  O   UNL d   1      -2.252   0.867  -2.285  0.00  0.00    -0.183 OA
ATOM     25  O   UNL d   1      -1.489   3.207  -2.673  0.00  0.00    -0.183 OA
BRANCH  23  26
ATOM     26  N   UNL d   1      -3.768   2.514  -3.331  0.00  0.00    -0.311 N 
ATOM     27  H   UNL d   1      -4.611   2.846  -2.984  0.00  0.00     0.170 HD
ATOM     28  H   UNL d   1      -3.674   2.326  -4.278  0.00  0.00     0.170 HD
ENDBRANCH  23  26
ENDBRANCH  21  23
BRANCH  20  29
ATOM     29  N   UNL d   1      -0.904   2.136   0.018  0.00  0.00    -0.388 N 
ATOM     30  H   UNL d   1      -0.609   1.892  -0.873  0.00  0.00     0.157 HD
ATOM     31  H   UNL d   1      -0.295   2.062   0.769  0.00  0.00     0.157 HD
ENDBRANCH  20  29
ENDBRANCH  19  20
ENDBRANCH  18  19
ENDBRANCH  17  18
ENDBRANCH   1  17
TORSDOF 9
