REMARK  4 active torsions:
REMARK  status: ('A' for Active; 'I' for Inactive)
REMARK    1  A    between atoms: C_5  and  N_8 
REMARK       I    between atoms: N_8  and  C_9 
REMARK       I    between atoms: C_9  and  N_11 
REMARK    2  A    between atoms: N_11  and  S_12 
REMARK    3  A    between atoms: S_12  and  C_15 
REMARK    4  A    between atoms: C_18  and  N_21 
ROOT
ATOM      1  N   UNL d   1       0.050   1.602  -0.600  0.00  0.00    -0.154 N 
ATOM      2  C   UNL d   1      -0.266   0.282  -0.358  0.00  0.00     0.688 C 
ATOM      3  H   UNL d   1       0.561  -1.525   0.086  0.00  0.00     0.174 HD
ATOM      4  N   UNL d   1      -1.582  -0.112  -0.316  0.00  0.00    -0.113 N 
ATOM      5  H   UNL d   1      -0.655   2.251  -0.745  0.00  0.00     0.188 HD
ATOM      6  H   UNL d   1      -2.289   0.549  -0.381  0.00  0.00     0.197 HD
ATOM      7  N   UNL d   1       0.744  -0.557  -0.181  0.00  0.00    -0.234 N 
ATOM      8  H   UNL d   1       1.709  -0.234  -0.312  0.00  0.00     0.174 HD
ENDROOT
BRANCH   1   9
ATOM      9  C   UNL d   1       1.377   1.999  -0.642  0.00  0.00     0.243 A 
ATOM     10  O   UNL d   1       1.813   3.248  -0.868  0.00  0.00    -0.282 OA
ATOM     11  C   UNL d   1       3.163   3.226  -0.830  0.00  0.00     0.075 A 
ATOM     12  C   UNL d   1       3.533   1.961  -0.581  0.00  0.00     0.038 A 
ATOM     13  C   UNL d   1       4.082   4.403  -1.029  0.00  0.00     0.079 C 
ATOM     14  C   UNL d   1       4.948   1.459  -0.450  0.00  0.00     0.071 C 
ATOM     15  N   UNL d   1       2.414   1.220  -0.463  0.00  0.00    -0.323 N 
ATOM     16  HN  UNL d   1       2.381   0.220  -0.267  1.00  0.00     0.169 HD
ENDBRANCH   1   9
BRANCH   4  17
ATOM     17  S   UNL d   1      -1.961  -1.716  -0.154  0.00  0.00     0.276 S 
ATOM     18  O   UNL d   1      -1.239  -2.192   0.973  0.00  0.00    -0.200 OA
ATOM     19  O   UNL d   1      -3.376  -1.811  -0.249  0.00  0.00    -0.200 OA
BRANCH  17  20
ATOM     20  C   UNL d   1      -1.305  -2.551  -1.561  0.00  0.00     0.080 A 
ATOM     21  C   UNL d   1      -0.070  -3.166  -1.484  0.00  0.00     0.027 A 
ATOM     22  C   UNL d   1       0.447  -3.821  -2.585  0.00  0.00     0.030 A 
ATOM     23  C   UNL d   1      -0.276  -3.861  -3.770  0.00  0.00     0.025 A 
ATOM     24  C   UNL d   1      -1.517  -3.242  -3.844  0.00  0.00     0.030 A 
ATOM     25  C   UNL d   1      -2.030  -2.594  -2.738  0.00  0.00     0.027 A 
BRANCH  23  26
ATOM     26  N   UNL d   1       0.244  -4.522  -4.885  0.00  0.00    -0.399 N 
ATOM     27  H   UNL d   1       1.111  -4.954  -4.832  0.00  0.00     0.156 HD
ATOM     28  H   UNL d   1      -0.262  -4.550  -5.712  0.00  0.00     0.156 HD
ENDBRANCH  23  26
ENDBRANCH  17  20
ENDBRANCH   4  17
TORSDOF 4
