REMARK  7 active torsions:
REMARK  status: ('A' for Active; 'I' for Inactive)
REMARK    1  A    between atoms: C_16  and  O_34 
REMARK    2  A    between atoms: C_19  and  C_20 
REMARK    3  A    between atoms: C_19  and  O_24 
REMARK    4  A    between atoms: C_20  and  C_22 
REMARK    5  A    between atoms: C_22  and  O_23 
REMARK    6  A    between atoms: O_24  and  C_25 
REMARK    7  A    between atoms: C_25  and  C_27 
ROOT
ATOM      1  C   UNL d   1      -1.614  -3.152   4.208  0.00  0.00     0.013 C 
ATOM      2  C   UNL d   1      -0.674  -2.063   3.687  0.00  0.00     0.026 C 
ATOM      3  C   UNL d   1      -0.812  -1.921   2.161  0.00  0.00     0.013 C 
ATOM      4  C   UNL d   1       0.616  -1.599   1.652  0.00  0.00     0.005 C 
ATOM      5  C   UNL d   1       0.782  -0.080   1.682  0.00  0.00     0.035 C 
ATOM      6  C   UNL d   1      -0.081   0.539   0.573  0.00  0.00     0.013 C 
ATOM      7  C   UNL d   1      -0.160   2.042   0.835  0.00  0.00     0.036 C 
ATOM      8  C   UNL d   1       1.212   2.595   1.139  0.00  0.00    -0.061 C 
ATOM      9  C   UNL d   1       1.273   3.920   1.352  0.00  0.00     0.058 C 
ATOM     10  C   UNL d   1       2.569   4.544   1.689  0.00  0.00     0.172 C 
ATOM     11  O   UNL d   1       2.740   5.755   1.589  0.00  0.00    -0.289 OA
ATOM     12  C   UNL d   1       3.648   3.662   2.187  0.00  0.00     0.052 C 
ATOM     13  C   UNL d   1       3.571   2.344   1.950  0.00  0.00    -0.006 C 
ATOM     14  C   UNL d   1       2.439   1.758   1.171  0.00  0.00     0.036 C 
ATOM     15  C   UNL d   1       2.238   0.283   1.411  0.00  0.00     0.147 C 
ATOM     16  C   UNL d   1       3.081  -0.228   2.578  0.00  0.00     0.160 C 
ATOM     17  C   UNL d   1       2.932  -1.729   2.739  0.00  0.00     0.048 C 
ATOM     18  C   UNL d   1       1.547  -2.305   2.644  0.00  0.00     0.002 C 
ATOM     19  C   UNL d   1       0.793  -2.451   3.963  0.00  0.00     0.144 C 
ATOM     20  C   UNL d   1       1.732  -3.750   2.099  0.00  0.00     0.019 C 
ATOM     21  F   UNL d   1       2.642  -0.394   0.252  0.00  0.00    -0.238 F 
ATOM     22  C   UNL d   1       2.948   1.807  -0.281  0.00  0.00     0.028 C 
ENDROOT
BRANCH  19  23
ATOM     23  C   UNL d   1       1.343  -1.605   5.074  0.00  0.00     0.186 C 
ATOM     24  O   UNL d   1       2.235  -2.027   5.771  0.00  0.00    -0.292 OA
BRANCH  23  25
ATOM     25  C   UNL d   1       0.784  -0.227   5.320  0.00  0.00     0.245 C 
BRANCH  25  26
ATOM     26  O   UNL d   1       1.559   0.430   6.325  0.00  0.00    -0.393 OA
ATOM     27  H   UNL d   1       1.255   1.323   6.535  0.00  0.00     0.209 HD
ENDBRANCH  25  26
ENDBRANCH  23  25
ENDBRANCH  19  23
BRANCH  19  28
ATOM     28  O   UNL d   1       0.832  -3.854   4.379  0.00  0.00    -0.297 OA
BRANCH  28  29
ATOM     29  C   UNL d   1       2.039  -4.367   4.689  0.00  0.00     0.294 C 
ATOM     30  O   UNL d   1       3.043  -3.708   4.508  0.00  0.00    -0.259 OA
BRANCH  29  31
ATOM     31  C   UNL d   1       2.141  -5.731   5.247  0.00  0.00     0.039 A 
ATOM     32  C   UNL d   1       3.390  -6.265   5.569  0.00  0.00     0.017 A 
ATOM     33  C   UNL d   1       3.478  -7.539   6.091  0.00  0.00     0.001 A 
ATOM     34  C   UNL d   1       2.332  -8.287   6.295  0.00  0.00     0.000 A 
ATOM     35  C   UNL d   1       1.091  -7.764   5.978  0.00  0.00     0.001 A 
ATOM     36  C   UNL d   1       0.988  -6.489   5.461  0.00  0.00     0.017 A 
ENDBRANCH  29  31
ENDBRANCH  28  29
ENDBRANCH  19  28
BRANCH  16  37
ATOM     37  O   UNL d   1       2.745   0.471   3.775  0.00  0.00    -0.392 OA
ATOM     38  H   UNL d   1       3.201   0.144   4.563  0.00  0.00     0.210 HD
ENDBRANCH  16  37
TORSDOF 7
