REMARK  9 active torsions:
REMARK  status: ('A' for Active; 'I' for Inactive)
REMARK    1  A    between atoms: C_2  and  C_3 
REMARK    2  A    between atoms: C_2  and  N_24 
REMARK    3  A    between atoms: C_3  and  O_4 
REMARK    4  A    between atoms: O_4  and  C_5 
REMARK    5  A    between atoms: C_11  and  C_13 
REMARK    6  A    between atoms: C_11  and  N_24 
REMARK    7  A    between atoms: C_13  and  C_14 
REMARK    8  A    between atoms: C_13  and  O_21 
REMARK    9  A    between atoms: C_17  and  O_20 
ROOT
ATOM      1  C   UNL d   1       7.371  -2.005   1.471  0.00  0.00     0.215 C 
ATOM      2  C   UNL d   1       7.257  -3.293   2.289  0.00  0.00     0.043 C 
ENDROOT
BRANCH   1   3
ATOM      3  C   UNL d   1       8.173  -0.969   2.261  0.00  0.00     0.181 C 
BRANCH   3   4
ATOM      4  C   UNL d   1       9.588  -1.456   2.437  0.00  0.00    -0.028 A 
ATOM      5  C   UNL d   1      10.591  -0.977   1.614  0.00  0.00     0.012 A 
ATOM      6  C   UNL d   1      11.889  -1.422   1.773  0.00  0.00     0.037 A 
ATOM      7  C   UNL d   1      12.186  -2.352   2.759  0.00  0.00     0.065 A 
ATOM      8  C   UNL d   1      11.178  -2.832   3.583  0.00  0.00     0.037 A 
ATOM      9  C   UNL d   1       9.883  -2.379   3.424  0.00  0.00     0.012 A 
BRANCH   7  10
ATOM     10  O   UNL d   1      13.462  -2.791   2.918  0.00  0.00    -0.361 OA
ATOM     11  H   UNL d   1      13.986  -2.263   3.536  0.00  0.00     0.217 HD
ENDBRANCH   7  10
ENDBRANCH   3   4
BRANCH   3  12
ATOM     12  O   UNL d   1       7.573  -0.778   3.543  0.00  0.00    -0.389 OA
ATOM     13  H   UNL d   1       7.533  -1.579   4.082  0.00  0.00     0.210 HD
ENDBRANCH   3  12
ENDBRANCH   1   3
BRANCH   1  14
ATOM     14  N   UNL d   1       6.019  -1.480   1.202  0.00  0.00    -0.063 N 
ATOM     15  H   UNL d   1       5.368  -2.265   1.086  0.00  0.00     0.278 HD
ATOM     16  H   UNL d   1       5.717  -0.900   1.994  0.00  0.00     0.278 HD
BRANCH  14  17
ATOM     17  C   UNL d   1       6.021  -0.663  -0.026  0.00  0.00     0.206 C 
ATOM     18  C   UNL d   1       5.798  -1.567  -1.240  0.00  0.00     0.042 C 
BRANCH  17  19
ATOM     19  C   UNL d   1       4.895   0.369   0.055  0.00  0.00     0.208 C 
BRANCH  19  20
ATOM     20  O   UNL d   1       3.633  -0.302   0.068  0.00  0.00    -0.349 OA
BRANCH  20  21
ATOM     21  C   UNL d   1       2.521   0.475   0.138  0.00  0.00     0.068 A 
ATOM     22  C   UNL d   1       2.641   1.856   0.193  0.00  0.00     0.037 A 
ATOM     23  C   UNL d   1       1.509   2.644   0.264  0.00  0.00     0.003 A 
ATOM     24  C   UNL d   1       0.257   2.058   0.281  0.00  0.00     0.000 A 
ATOM     25  C   UNL d   1       0.135   0.682   0.226  0.00  0.00     0.003 A 
ATOM     26  C   UNL d   1       1.264  -0.111   0.155  0.00  0.00     0.037 A 
ENDBRANCH  20  21
ENDBRANCH  19  20
ENDBRANCH  17  19
ENDBRANCH  14  17
ENDBRANCH   1  14
TORSDOF 9
