REMARK  7 active torsions:
REMARK  status: ('A' for Active; 'I' for Inactive)
REMARK    1  A    between atoms: C_2  and  C_4 
REMARK    2  A    between atoms: C_4  and  C_5 
REMARK    3  A    between atoms: C_8  and  C_11 
REMARK    4  A    between atoms: C_11  and  C_13 
REMARK    5  A    between atoms: C_13  and  O_15 
REMARK    6  A    between atoms: O_15  and  C_16 
REMARK    7  A    between atoms: C_16  and  C_17 
ROOT
ATOM      1  C   UNL d   1      -2.717   2.949   4.763  0.00  0.00     0.114 C 
ATOM      2  C   UNL d   1      -1.700   3.127   5.892  0.00  0.00     0.025 C 
ENDROOT
BRANCH   1   3
ATOM      3  C   UNL d   1      -2.012   2.463   3.523  0.00  0.00    -0.045 A 
ATOM      4  C   UNL d   1      -1.010   3.227   2.953  0.00  0.00     0.008 A 
ATOM      5  C   UNL d   1      -0.360   2.779   1.819  0.00  0.00     0.007 A 
ATOM      6  C   UNL d   1      -0.718   1.572   1.248  0.00  0.00    -0.058 A 
ATOM      7  C   UNL d   1      -1.719   0.808   1.818  0.00  0.00     0.007 A 
ATOM      8  C   UNL d   1      -2.366   1.254   2.955  0.00  0.00     0.008 A 
BRANCH   6   9
ATOM      9  C   UNL d   1      -0.013   1.086   0.008  0.00  0.00     0.042 C 
BRANCH   9  10
ATOM     10  C   UNL d   1      -0.753   1.593  -1.232  0.00  0.00    -0.019 C 
ATOM     11  C   UNL d   1      -0.666   3.119  -1.289  0.00  0.00     0.010 C 
ATOM     12  C   UNL d   1      -0.111   0.998  -2.487  0.00  0.00     0.010 C 
ENDBRANCH   9  10
ENDBRANCH   6   9
ENDBRANCH   1   3
BRANCH   1  13
ATOM     13  C   UNL d   1      -3.385   4.269   4.476  0.00  0.00     0.267 C 
ATOM     14  O   UNL d   1      -3.297   4.765   3.377  0.00  0.00    -0.265 OA
BRANCH  13  15
ATOM     15  O   UNL d   1      -4.077   4.895   5.441  0.00  0.00    -0.315 OA
BRANCH  15  16
ATOM     16  C   UNL d   1      -4.694   6.163   5.093  0.00  0.00     0.235 C 
BRANCH  16  17
ATOM     17  C   UNL d   1      -5.423   6.712   6.293  0.00  0.00     0.033 A 
ATOM     18  N   UNL d   1      -6.053   7.867   6.199  0.00  0.00    -0.367 N 
ATOM     19  C   UNL d   1      -6.708   8.384   7.221  0.00  0.00     0.088 A 
ATOM     20  HN  UNL d   1      -6.035   8.373   5.314  1.00  0.00     0.165 HD
ATOM     21  C   UNL d   1      -6.746   7.732   8.439  0.00  0.00     0.017 A 
ATOM     22  C   UNL d   1      -6.090   6.518   8.577  0.00  0.00     0.003 A 
ATOM     23  C   UNL d   1      -5.417   6.004   7.479  0.00  0.00     0.027 A 
ENDBRANCH  16  17
ENDBRANCH  15  16
ENDBRANCH  13  15
ENDBRANCH   1  13
TORSDOF 7
