REMARK  10 active torsions:
REMARK  status: ('A' for Active; 'I' for Inactive)
REMARK    1  A    between atoms: C_4  and  C_7 
REMARK    2  A    between atoms: C_7  and  C_8 
REMARK    3  A    between atoms: C_7  and  O_36 
REMARK       I    between atoms: C_8  and  N_10 
REMARK    4  A    between atoms: N_10  and  CA_11 
REMARK    5  A    between atoms: CA_16  and  C_34 
REMARK    6  A    between atoms: C_17  and  C_20 
REMARK    7  A    between atoms: C_20  and  S_21 
REMARK    8  A    between atoms: S_21  and  C_22 
REMARK    9  A    between atoms: N_29  and  C_30 
REMARK   10  A    between atoms: C_30  and  S_31 
ROOT
ATOM      1  CA  UNL d   1       0.786  -2.108   0.943  0.00  0.00     0.210 C 
ATOM      2  C   UNL d   1       0.946  -2.755   2.308  0.00  0.00     0.187 C 
ATOM      3  N   UNL d   1       2.129  -3.402   1.651  0.00  0.00    -0.293 N 
ATOM      4  C   UNL d   1       2.166  -2.604   0.573  0.00  0.00     0.251 C 
ATOM      5  O   UNL d   1       2.962  -2.378  -0.314  0.00  0.00    -0.271 OA
ATOM      6  CA  UNL d   1       2.800  -4.554   2.106  0.00  0.00     0.119 C 
ATOM      7  C   UNL d   1       2.213  -5.386   2.950  0.00  0.00    -0.027 C 
ATOM      8  C   UNL d   1       0.865  -5.269   3.584  0.00  0.00     0.113 C 
ATOM      9  S   UNL d   1      -0.210  -4.111   2.680  0.00  0.00    -0.136 SA
ENDROOT
BRANCH   7  10
ATOM     10  C   UNL d   1       3.006  -6.612   3.320  0.00  0.00     0.120 C 
BRANCH  10  11
ATOM     11  S   UNL d   1       3.738  -6.385   4.960  0.00  0.00    -0.086 SA
BRANCH  11  12
ATOM     12  C   UNL d   1       4.583  -7.921   5.133  0.00  0.00     0.179 A 
ATOM     13  N   UNL d   1       5.324  -8.317   6.195  0.00  0.00    -0.237 N 
ATOM     14  N   UNL d   1       5.787  -9.602   5.864  0.00  0.00    -0.223 N 
ATOM     15  N   UNL d   1       5.321  -9.877   4.694  0.00  0.00    -0.226 N 
ATOM     16  HN  UNL d   1       6.378 -10.202   6.440  1.00  0.00     0.210 HD
ATOM     17  N   UNL d   1       4.609  -8.902   4.257  0.00  0.00    -0.263 N 
ATOM     18  HN  UNL d   1       5.493 -10.746   4.188  1.00  0.00     0.210 HD
ATOM     19  HN  UNL d   1       4.130  -8.890   3.356  1.00  0.00     0.190 HD
BRANCH  13  20
ATOM     20  C   UNL d   1       5.588  -7.565   7.425  0.00  0.00     0.317 C 
BRANCH  20  21
ATOM     21  S   UNL d   1       4.303  -7.940   8.649  0.00  0.00     0.121 S 
ATOM     22  O   UNL d   1       3.053  -7.416   8.223  0.00  0.00    -0.594 OA
ATOM     23  O   UNL d   1       4.414  -9.291   9.077  0.00  0.00    -0.594 OA
ATOM     24  O   UNL d   1       4.675  -7.114   9.872  0.00  0.00    -0.594 OA
ENDBRANCH  20  21
ENDBRANCH  13  20
ENDBRANCH  11  12
ENDBRANCH  10  11
ENDBRANCH   7  10
BRANCH   6  25
ATOM     25  C   UNL d   1       4.169  -4.834   1.638  0.00  0.00     0.227 C 
ATOM     26  O   UNL d   1       5.121  -4.361   2.226  0.00  0.00    -0.643 OA
ATOM     27  OXT UNL d   1       4.365  -5.616   0.558  0.00  0.00    -0.643 OA
ENDBRANCH   6  25
BRANCH   1  28
ATOM     28  N   UNL d   1       0.691  -0.647   1.001  0.00  0.00    -0.343 N 
ATOM     29  C   UNL d   1       0.075   0.029   0.011  0.00  0.00     0.251 C 
ATOM     30  O   UNL d   1      -0.401  -0.573  -0.928  0.00  0.00    -0.270 OA
ATOM     31  H   UNL d   1       1.072  -0.166   1.752  0.00  0.00     0.163 HD
BRANCH  29  32
ATOM     32  C   UNL d   1      -0.022   1.531   0.071  0.00  0.00     0.243 C 
BRANCH  32  33
ATOM     33  C   UNL d   1      -0.879   1.933   1.244  0.00  0.00    -0.021 A 
ATOM     34  C   UNL d   1      -0.287   2.351   2.421  0.00  0.00     0.010 A 
ATOM     35  C   UNL d   1      -1.073   2.719   3.497  0.00  0.00     0.001 A 
ATOM     36  C   UNL d   1      -2.451   2.670   3.396  0.00  0.00     0.000 A 
ATOM     37  C   UNL d   1      -3.043   2.252   2.218  0.00  0.00     0.001 A 
ATOM     38  C   UNL d   1      -2.257   1.887   1.141  0.00  0.00     0.010 A 
ENDBRANCH  32  33
BRANCH  32  39
ATOM     39  O   UNL d   1      -0.609   2.019  -1.137  0.00  0.00    -0.381 OA
ATOM     40  H   UNL d   1      -1.500   1.682  -1.305  0.00  0.00     0.211 HD
ENDBRANCH  32  39
ENDBRANCH  29  32
ENDBRANCH   1  28
TORSDOF 10
