REMARK  18 active torsions:
REMARK  status: ('A' for Active; 'I' for Inactive)
REMARK       I    between atoms: C_2  and  N_4 
REMARK    1  A    between atoms: N_4  and  C_5 
REMARK    2  A    between atoms: N_4  and  C_10 
REMARK    3  A    between atoms: C_5  and  C_6 
REMARK    4  A    between atoms: C_6  and  C_7 
REMARK    5  A    between atoms: C_6  and  O_9 
REMARK    6  A    between atoms: C_7  and  O_8 
REMARK    7  A    between atoms: C_12  and  C_26 
REMARK    8  A    between atoms: C_14  and  C_17 
REMARK       I    between atoms: C_17  and  N_19 
REMARK    9  A    between atoms: N_19  and  C_20 
REMARK   10  A    between atoms: C_20  and  C_21 
REMARK   11  A    between atoms: C_21  and  C_22 
REMARK   12  A    between atoms: C_21  and  O_24 
REMARK   13  A    between atoms: C_22  and  O_23 
REMARK       I    between atoms: C_26  and  N_28 
REMARK   14  A    between atoms: N_28  and  C_29 
REMARK   15  A    between atoms: C_29  and  C_30 
REMARK   16  A    between atoms: C_30  and  C_31 
REMARK   17  A    between atoms: C_30  and  O_33 
REMARK   18  A    between atoms: C_31  and  O_32 
ROOT
ATOM      1  C   UNL d   1      -2.792   1.582  -5.455  0.00  0.00     0.072 A 
ATOM      2  C   UNL d   1      -2.489   2.768  -6.108  0.00  0.00     0.051 A 
ATOM      3  C   UNL d   1      -1.546   3.645  -5.566  0.00  0.00     0.068 A 
ATOM      4  C   UNL d   1      -0.914   3.329  -4.364  0.00  0.00     0.040 A 
ATOM      5  C   UNL d   1      -1.217   2.134  -3.713  0.00  0.00     0.068 A 
ATOM      6  C   UNL d   1      -2.161   1.262  -4.262  0.00  0.00     0.051 A 
ATOM      7  I   UNL d   1      -2.625  -0.529  -3.280  0.00  0.00    -0.041 I 
ATOM      8  I   UNL d   1       0.495   4.644  -3.542  0.00  0.00    -0.042 I 
ATOM      9  I   UNL d   1      -3.446   3.244  -7.910  0.00  0.00    -0.041 I 
ENDROOT
BRANCH   1  10
ATOM     10  N   UNL d   1      -3.738   0.706  -6.001  0.00  0.00    -0.313 N 
ATOM     11  C   UNL d   1      -3.373  -0.166  -6.963  0.00  0.00     0.220 C 
ATOM     12  C   UNL d   1      -4.413  -1.023  -7.637  0.00  0.00     0.117 C 
ATOM     13  O   UNL d   1      -2.208  -0.259  -7.286  0.00  0.00    -0.273 OA
BRANCH  10  14
ATOM     14  C   UNL d   1      -5.124   0.736  -5.528  0.00  0.00     0.166 C 
BRANCH  14  15
ATOM     15  C   UNL d   1      -5.917   1.766  -6.335  0.00  0.00     0.160 C 
BRANCH  15  16
ATOM     16  C   UNL d   1      -7.353   1.829  -5.811  0.00  0.00     0.197 C 
BRANCH  16  17
ATOM     17  O   UNL d   1      -8.061   2.871  -6.486  0.00  0.00    -0.398 OA
ATOM     18  H   UNL d   1      -8.980   2.969  -6.204  0.00  0.00     0.209 HD
ENDBRANCH  16  17
ENDBRANCH  15  16
BRANCH  15  19
ATOM     19  O   UNL d   1      -5.928   1.385  -7.712  0.00  0.00    -0.392 OA
ATOM     20  H   UNL d   1      -6.331   0.521  -7.878  0.00  0.00     0.210 HD
ENDBRANCH  15  19
ENDBRANCH  14  15
ENDBRANCH  10  14
ENDBRANCH   1  10
BRANCH   5  21
ATOM     21  C   UNL d   1      -0.545   1.793  -2.442  0.00  0.00     0.254 C 
ATOM     22  O   UNL d   1       0.494   1.163  -2.454  0.00  0.00    -0.268 OA
ATOM     23  N   UNL d   1      -1.085   2.180  -1.270  0.00  0.00    -0.354 N 
ATOM     24  H   UNL d   1      -1.914   2.683  -1.260  0.00  0.00     0.162 HD
BRANCH  23  25
ATOM     25  C   UNL d   1      -0.418   1.842  -0.010  0.00  0.00     0.156 C 
BRANCH  25  26
ATOM     26  C   UNL d   1      -1.232   2.396   1.162  0.00  0.00     0.159 C 
BRANCH  26  27
ATOM     27  C   UNL d   1      -0.536   2.042   2.478  0.00  0.00     0.197 C 
BRANCH  27  28
ATOM     28  O   UNL d   1      -1.353   2.456   3.575  0.00  0.00    -0.398 OA
ATOM     29  H   UNL d   1      -0.974   2.263   4.443  0.00  0.00     0.209 HD
ENDBRANCH  27  28
ENDBRANCH  26  27
BRANCH  26  30
ATOM     30  O   UNL d   1      -1.333   3.816   1.043  0.00  0.00    -0.392 OA
ATOM     31  H   UNL d   1      -0.480   4.272   1.047  0.00  0.00     0.210 HD
ENDBRANCH  26  30
ENDBRANCH  25  26
ENDBRANCH  23  25
ENDBRANCH   5  21
BRANCH   3  32
ATOM     32  C   UNL d   1      -1.224   4.908  -6.262  0.00  0.00     0.254 C 
ATOM     33  O   UNL d   1      -1.855   5.917  -6.013  0.00  0.00    -0.268 OA
ATOM     34  N   UNL d   1      -0.232   4.941  -7.173  0.00  0.00    -0.354 N 
ATOM     35  H   UNL d   1       0.271   4.136  -7.372  0.00  0.00     0.162 HD
BRANCH  34  36
ATOM     36  C   UNL d   1       0.087   6.193  -7.864  0.00  0.00     0.156 C 
BRANCH  36  37
ATOM     37  C   UNL d   1       1.243   5.958  -8.838  0.00  0.00     0.159 C 
BRANCH  37  38
ATOM     38  C   UNL d   1       1.659   7.290  -9.466  0.00  0.00     0.197 C 
BRANCH  38  39
ATOM     39  O   UNL d   1       2.812   7.090 -10.286  0.00  0.00    -0.398 OA
ATOM     40  H   UNL d   1       3.132   7.894 -10.717  0.00  0.00     0.209 HD
ENDBRANCH  38  39
ENDBRANCH  37  38
BRANCH  37  41
ATOM     41  O   UNL d   1       0.826   5.057  -9.864  0.00  0.00    -0.392 OA
ATOM     42  H   UNL d   1       0.075   5.373 -10.384  0.00  0.00     0.210 HD
ENDBRANCH  37  41
ENDBRANCH  36  37
ENDBRANCH  34  36
ENDBRANCH   3  32
TORSDOF 18
