REMARK  1 active torsions:
REMARK  status: ('A' for Active; 'I' for Inactive)
REMARK    1  A    between atoms: N_9  and  C_10 
ROOT
ATOM      1  C   UNL d   1       2.735  -2.290   0.855  0.00  0.00     0.146 A 
ATOM      2  C   UNL d   1       2.873  -3.407   1.603  0.00  0.00     0.199 A 
ATOM      3  C   UNL d   1       1.736  -3.940   2.261  0.00  0.00     0.289 A 
ATOM      4  O   UNL d   1       1.834  -4.948   2.937  0.00  0.00    -0.265 OA
ATOM      5  N   UNL d   1       0.545  -3.321   2.131  0.00  0.00    -0.273 N 
ATOM      6  H   UNL d   1      -0.261  -3.691   2.593  0.00  0.00     0.173 HD
ATOM      7  C   UNL d   1       0.437  -2.207   1.383  0.00  0.00     0.331 A 
ATOM      8  O   UNL d   1      -0.644  -1.660   1.276  0.00  0.00    -0.246 OA
ATOM      9  N   UNL d   1       1.507  -1.690   0.753  0.00  0.00    -0.279 N 
ATOM     10  F   UNL d   1       4.076  -4.010   1.718  0.00  0.00    -0.199 F 
ENDROOT
BRANCH   9  11
ATOM     11  C   UNL d   1       1.358  -0.476  -0.054  0.00  0.00     0.232 C 
ATOM     12  O   UNL d   1       0.002  -0.004   0.002  0.00  0.00    -0.366 OA
ATOM     13  C   UNL d   1      -0.017   1.428   0.010  0.00  0.00     0.170 C 
ATOM     14  C   UNL d   1       1.448   1.915  -0.002  0.00  0.00     0.031 C 
ATOM     15  C   UNL d   1       2.211   0.674   0.537  0.00  0.00     0.056 C 
ENDBRANCH   9  11
TORSDOF 1
