REMARK  7 active torsions:
REMARK  status: ('A' for Active; 'I' for Inactive)
REMARK    1  A    between atoms: C_2  and  C_19 
REMARK    2  A    between atoms: C_5  and  O_8 
REMARK    3  A    between atoms: O_8  and  C_9 
REMARK    4  A    between atoms: C_12  and  O_16 
REMARK    5  A    between atoms: C_19  and  CA_20 
REMARK    6  A    between atoms: CA_20  and  C_21 
REMARK    7  A    between atoms: CA_20  and  N_27 
ROOT
ATOM      1  C   UNL d   1       4.179   5.096   1.187  0.00  0.00     0.028 A 
ATOM      2  C   UNL d   1       4.772   5.435  -0.015  0.00  0.00    -0.053 A 
ATOM      3  C   UNL d   1       4.157   5.108  -1.209  0.00  0.00     0.028 A 
ATOM      4  C   UNL d   1       2.946   4.442  -1.204  0.00  0.00     0.042 A 
ATOM      5  C   UNL d   1       2.348   4.101   0.001  0.00  0.00     0.109 A 
ATOM      6  C   UNL d   1       2.965   4.435   1.198  0.00  0.00     0.042 A 
ATOM      7  I   UNL d   1       2.063   3.931   3.020  0.00  0.00    -0.042 I 
ATOM      8  I   UNL d   1       2.014   3.947  -3.014  0.00  0.00    -0.042 I 
ENDROOT
BRANCH   5   9
ATOM      9  O   UNL d   1       1.157   3.447   0.009  0.00  0.00    -0.308 OA
BRANCH   9  10
ATOM     10  C   UNL d   1       1.175   2.087   0.002  0.00  0.00     0.078 A 
ATOM     11  C   UNL d   1       2.386   1.411  -0.013  0.00  0.00     0.058 A 
ATOM     12  C   UNL d   1       2.405   0.029  -0.021  0.00  0.00     0.043 A 
ATOM     13  C   UNL d   1       1.213  -0.681  -0.013  0.00  0.00     0.098 A 
ATOM     14  I   UNL d   1       4.233  -0.994  -0.043  0.00  0.00    -0.042 I 
ATOM     15  C   UNL d   1       0.002  -0.004   0.002  0.00  0.00     0.043 A 
ATOM     16  C   UNL d   1      -0.017   1.378   0.010  0.00  0.00     0.058 A 
ATOM     17  I   UNL d   1      -1.798  -1.076   0.014  0.00  0.00    -0.042 I 
BRANCH  13  18
ATOM     18  O   UNL d   1       1.231  -2.041  -0.020  0.00  0.00    -0.358 OA
ATOM     19  H   UNL d   1       1.228  -2.430  -0.906  0.00  0.00     0.217 HD
ENDBRANCH  13  18
ENDBRANCH   9  10
ENDBRANCH   5   9
BRANCH   2  20
ATOM     20  C   UNL d   1       6.093   6.160  -0.023  0.00  0.00     0.082 C 
BRANCH  20  21
ATOM     21  CA  UNL d   1       5.846   7.670  -0.014  0.00  0.00     0.287 C 
BRANCH  21  22
ATOM     22  C   UNL d   1       7.160   8.395  -0.147  0.00  0.00     0.204 C 
ATOM     23  O   UNL d   1       7.698   8.855   0.833  0.00  0.00    -0.646 OA
ATOM     24  OXT UNL d   1       7.733   8.531  -1.353  0.00  0.00    -0.646 OA
ENDBRANCH  21  22
BRANCH  21  25
ATOM     25  N   UNL d   1       5.180   8.038   1.248  0.00  0.00    -0.065 N 
ATOM     26  H1  UNL d   1       5.782   7.815   2.038  0.00  0.00     0.275 HD
ATOM     27  H2  UNL d   1       4.968   9.034   1.253  0.00  0.00     0.275 HD
ATOM     28  H3  UNL d   1       4.304   7.509   1.334  0.00  0.00     0.275 HD
ENDBRANCH  21  25
ENDBRANCH  20  21
ENDBRANCH   2  20
TORSDOF 7
