REMARK  1 active torsions:
REMARK  status: ('A' for Active; 'I' for Inactive)
REMARK    1  A    between atoms: C_14  and  C_16 
ROOT
ATOM      1  C   UNL d   1      -0.987   0.253  -1.845  0.00  0.00     0.041 C 
ATOM      2  C   UNL d   1      -0.606   1.485  -1.021  0.00  0.00     0.147 C 
ATOM      3  C   UNL d   1       0.055   1.054   0.304  0.00  0.00     0.271 C 
ATOM      4  C   UNL d   1      -0.062   2.048   2.518  0.00  0.00     0.342 C 
ATOM      5  C   UNL d   1      -0.932   2.289   3.698  0.00  0.00     0.248 C 
ATOM      6  O   UNL d   1      -0.478   1.990   4.782  0.00  0.00    -0.271 OA
ATOM      7  N   UNL d   1      -2.139   2.792   3.682  0.00  0.00    -0.325 N 
ATOM      8  C   UNL d   1      -3.060   3.089   2.701  0.00  0.00     0.046 A 
ATOM      9  C   UNL d   1      -4.333   3.451   3.174  0.00  0.00     0.032 A 
ATOM     10  C   UNL d   1      -5.341   3.810   2.313  0.00  0.00     0.026 A 
ATOM     11  C   UNL d   1      -5.105   3.815   0.949  0.00  0.00     0.034 A 
ATOM     12  C   UNL d   1      -3.864   3.452   0.476  0.00  0.00     0.038 A 
ATOM     13  C   UNL d   1      -2.835   3.081   1.342  0.00  0.00     0.038 A 
ATOM     14  C   UNL d   1      -1.546   2.697   0.689  0.00  0.00     0.288 C 
ATOM     15  O   UNL d   1      -1.789   2.221  -0.651  0.00  0.00    -0.340 OA
ATOM     16 CL   UNL d   1      -6.363   4.274  -0.156  0.00  0.00    -0.084 Cl
ATOM     17  H   UNL d   1      -2.462   3.007   4.571  0.00  0.00     0.169 HD
ATOM     18  N   UNL d   1      -0.835   1.606   1.313  0.00  0.00    -0.019 N 
ATOM     19  H   UNL d   1      -1.508   0.887   1.605  0.00  0.00     0.285 HD
ENDROOT
BRANCH  14  20
ATOM     20  C   UNL d   1      -0.659   3.913   0.614  0.00  0.00     0.010 A 
ATOM     21  C   UNL d   1      -1.080   5.110   1.162  0.00  0.00     0.012 A 
ATOM     22  C   UNL d   1      -0.266   6.226   1.094  0.00  0.00     0.001 A 
ATOM     23  C   UNL d   1       0.969   6.143   0.479  0.00  0.00     0.000 A 
ATOM     24  C   UNL d   1       1.391   4.946  -0.068  0.00  0.00     0.001 A 
ATOM     25  C   UNL d   1       0.579   3.829   0.004  0.00  0.00     0.012 A 
ENDBRANCH  14  20
TORSDOF 1
