REMARK  5 active torsions:
REMARK  status: ('A' for Active; 'I' for Inactive)
REMARK    1  A    between atoms: C_2  and  C_3 
REMARK    2  A    between atoms: C_3  and  N_4 
REMARK    3  A    between atoms: C_8  and  C_11 
REMARK    4  A    between atoms: C_9  and  O_10 
REMARK    5  A    between atoms: C_26  and  O_27 
ROOT
ATOM      1  N   UNL d   1      -4.553   1.360   0.509  0.00  0.00    -0.030 N 
ATOM      2  C   UNL d   1      -3.280   1.870  -0.132  0.00  0.00     0.213 C 
ATOM      3  C   UNL d   1      -3.305   3.291  -0.548  0.00  0.00     0.041 C 
ATOM      4  C   UNL d   1      -3.839   4.073   0.755  0.00  0.00     0.004 C 
ATOM      5  C   UNL d   1      -5.361   3.779   0.658  0.00  0.00     0.047 C 
ATOM      6  C   UNL d   1      -5.602   2.372   0.159  0.00  0.00     0.328 C 
ATOM      7  C   UNL d   1      -3.258   3.015   1.670  0.00  0.00     0.051 C 
ATOM      8  C   UNL d   1      -4.139   1.767   1.935  0.00  0.00     0.202 C 
ATOM      9  C   UNL d   1      -3.054   0.704   2.405  0.00  0.00     0.053 C 
ATOM     10  C   UNL d   1      -1.808   1.325   1.808  0.00  0.00     0.035 C 
ATOM     11  C   UNL d   1      -1.978   1.126   0.228  0.00  0.00     0.109 C 
ATOM     12  N   UNL d   1      -0.737   1.927  -0.094  0.00  0.00    -0.279 NA
ATOM     13  C   UNL d   1       0.212   1.354   0.775  0.00  0.00     0.018 A 
ATOM     14  C   UNL d   1      -0.420   0.901   1.965  0.00  0.00    -0.024 A 
ATOM     15  C   UNL d   1       0.291   0.254   2.950  0.00  0.00     0.010 A 
ATOM     16  C   UNL d   1       1.655   0.085   2.752  0.00  0.00     0.001 A 
ATOM     17  C   UNL d   1       2.283   0.558   1.619  0.00  0.00     0.002 A 
ATOM     18  C   UNL d   1       1.582   1.206   0.612  0.00  0.00     0.024 A 
ATOM     19  C   UNL d   1      -0.340   1.720  -1.496  0.00  0.00     0.117 C 
ATOM     20  C   UNL d   1      -1.920   2.808   2.332  0.00  0.00     0.139 C 
ENDROOT
BRANCH   1  21
ATOM     21  C   UNL d   1      -4.943  -0.049   0.231  0.00  0.00     0.241 C 
BRANCH  21  22
ATOM     22  C   UNL d   1      -5.308  -0.195  -1.248  0.00  0.00     0.024 C 
ATOM     23  C   UNL d   1      -5.710  -1.644  -1.533  0.00  0.00     0.007 C 
ENDBRANCH  21  22
ENDBRANCH   1  21
BRANCH   6  24
ATOM     24  O   UNL d   1      -6.859   1.908   0.675  0.00  0.00    -0.369 OA
ATOM     25  H   UNL d   1      -7.614   2.455   0.419  0.00  0.00     0.212 HD
ENDBRANCH   6  24
BRANCH   5  26
ATOM     26  C   UNL d   1      -6.081   4.071   1.968  0.00  0.00     0.005 C 
ATOM     27  C   UNL d   1      -5.907   5.548   2.328  0.00  0.00     0.005 C 
ENDBRANCH   5  26
BRANCH  20  28
ATOM     28  O   UNL d   1      -1.998   2.909   3.756  0.00  0.00    -0.394 OA
ATOM     29  H   UNL d   1      -2.066   3.816   4.083  0.00  0.00     0.210 HD
ENDBRANCH  20  28
TORSDOF 5
