REMARK  3 active torsions:
REMARK  status: ('A' for Active; 'I' for Inactive)
REMARK    1  A    between atoms: C_6  and  C_12 
REMARK    2  A    between atoms: C_8  and  C_9 
REMARK    3  A    between atoms: C_9  and  O_10 
ROOT
ATOM      1  C   UNL d   1       0.935   4.618  -1.843  0.00  0.00     0.145 A 
ATOM      2  C   UNL d   1       2.034   4.128  -0.903  0.00  0.00     0.219 A 
ATOM      3  N   UNL d   1       1.022   3.570   0.011  0.00  0.00    -0.204 NA
ATOM      4  C   UNL d   1       0.039   4.049  -0.776  0.00  0.00     0.206 A 
ATOM      5  O   UNL d   1      -1.169   4.027  -0.664  0.00  0.00    -0.279 OA
ATOM      6  C   UNL d   1       1.279   2.109   0.001  0.00  0.00     0.225 C 
ATOM      7  C   UNL d   1       2.017   1.914  -1.319  0.00  0.00     0.075 C 
ATOM      8  C   UNL d   1       1.919   0.912  -2.168  0.00  0.00     0.033 C 
ATOM      9  O   UNL d   1       2.807   3.031  -1.412  0.00  0.00    -0.332 OA
ENDROOT
BRANCH   6  10
ATOM     10  C   UNL d   1      -0.016   1.338   0.009  0.00  0.00     0.198 C 
ATOM     11  O   UNL d   1      -1.071   1.928   0.018  0.00  0.00    -0.646 OA
ATOM     12  O   UNL d   1       0.002  -0.004   0.002  0.00  0.00    -0.646 OA
ENDBRANCH   6  10
BRANCH   8  13
ATOM     13  C   UNL d   1       2.744   0.910  -3.429  0.00  0.00     0.194 C 
BRANCH  13  14
ATOM     14  O   UNL d   1       3.320  -0.384  -3.618  0.00  0.00    -0.397 OA
ATOM     15  H   UNL d   1       3.866  -0.459  -4.413  0.00  0.00     0.209 HD
ENDBRANCH  13  14
ENDBRANCH   8  13
TORSDOF 3
