REMARK  5 active torsions:
REMARK  status: ('A' for Active; 'I' for Inactive)
REMARK    1  A    between atoms: C_4  and  O_27 
REMARK    2  A    between atoms: C_10  and  C_11 
REMARK    3  A    between atoms: C_10  and  O_15 
REMARK    4  A    between atoms: C_11  and  C_13 
REMARK    5  A    between atoms: C_13  and  O_14 
ROOT
ATOM      1  C   UNL d   1      -3.040   2.748  -0.580  0.00  0.00     0.019 C 
ATOM      2  C   UNL d   1      -1.562   2.932  -0.943  0.00  0.00     0.001 C 
ATOM      3  C   UNL d   1      -0.958   1.632  -1.401  0.00  0.00     0.045 C 
ATOM      4  C   UNL d   1      -0.280   0.881  -0.236  0.00  0.00     0.125 C 
ATOM      5  C   UNL d   1      -0.944   1.264   1.071  0.00  0.00     0.039 C 
ATOM      6  C   UNL d   1      -0.641   2.721   1.412  0.00  0.00     0.022 C 
ATOM      7  C   UNL d   1      -0.761   3.585   0.200  0.00  0.00     0.005 C 
ATOM      8  C   UNL d   1      -1.457   4.944   0.345  0.00  0.00     0.009 C 
ATOM      9  C   UNL d   1      -1.739   5.349  -1.129  0.00  0.00     0.047 C 
ATOM     10  C   UNL d   1      -1.523   4.074  -1.983  0.00  0.00     0.128 C 
ATOM     11  C   UNL d   1      -1.376   3.152   2.635  0.00  0.00     0.003 C 
ATOM     12  C   UNL d   1      -1.796   2.268   3.546  0.00  0.00     0.038 C 
ATOM     13  C   UNL d   1      -1.581   0.825   3.358  0.00  0.00    -0.020 C 
ATOM     14  C   UNL d   1      -2.261  -0.045   4.131  0.00  0.00     0.064 C 
ATOM     15  C   UNL d   1      -2.176  -1.482   3.877  0.00  0.00     0.172 C 
ATOM     16  O   UNL d   1      -2.703  -2.280   4.631  0.00  0.00    -0.289 OA
ATOM     17  C   UNL d   1      -1.453  -1.940   2.678  0.00  0.00     0.052 C 
ATOM     18  C   UNL d   1      -0.773  -1.076   1.941  0.00  0.00    -0.008 C 
ATOM     19  C   UNL d   1      -0.643   0.373   2.265  0.00  0.00     0.009 C 
ATOM     20  C   UNL d   1       0.784   0.593   2.756  0.00  0.00     0.025 C 
ATOM     21 CL   UNL d   1      -2.603   2.837   4.974  0.00  0.00    -0.084 Cl
ENDROOT
BRANCH  10  22
ATOM     22  C   UNL d   1      -2.640   3.901  -2.973  0.00  0.00     0.184 C 
ATOM     23  O   UNL d   1      -3.685   4.483  -2.812  0.00  0.00    -0.292 OA
BRANCH  22  24
ATOM     24  C   UNL d   1      -2.456   3.000  -4.167  0.00  0.00     0.245 C 
BRANCH  24  25
ATOM     25  O   UNL d   1      -3.649   3.001  -4.953  0.00  0.00    -0.393 OA
ATOM     26  H   UNL d   1      -3.602   2.440  -5.740  0.00  0.00     0.209 HD
ENDBRANCH  24  25
ENDBRANCH  22  24
ENDBRANCH  10  22
BRANCH  10  27
ATOM     27  O   UNL d   1      -0.257   4.109  -2.632  0.00  0.00    -0.381 OA
ATOM     28  H   UNL d   1      -0.175   4.807  -3.296  0.00  0.00     0.211 HD
ENDBRANCH  10  27
BRANCH   4  29
ATOM     29  O   UNL d   1       1.111   1.211  -0.211  0.00  0.00    -0.395 OA
ATOM     30  H   UNL d   1       1.581   0.996  -1.029  0.00  0.00     0.210 HD
ENDBRANCH   4  29
TORSDOF 5
