REMARK  6 active torsions:
REMARK  status: ('A' for Active; 'I' for Inactive)
REMARK    1  A    between atoms: C_16  and  O_29 
REMARK    2  A    between atoms: C_19  and  C_20 
REMARK    3  A    between atoms: C_19  and  O_27 
REMARK    4  A    between atoms: C_20  and  C_22 
REMARK    5  A    between atoms: C_22  and  O_23 
REMARK    6  A    between atoms: O_23  and  C_24 
ROOT
ATOM      1  C   UNL d   1       4.077   4.237  -0.059  0.00  0.00     0.013 C 
ATOM      2  C   UNL d   1       2.932   3.646  -0.883  0.00  0.00     0.025 C 
ATOM      3  C   UNL d   1       3.260   2.235  -1.402  0.00  0.00     0.013 C 
ATOM      4  C   UNL d   1       1.929   1.485  -1.280  0.00  0.00     0.002 C 
ATOM      5  C   UNL d   1       2.026  -0.021  -1.131  0.00  0.00     0.001 C 
ATOM      6  C   UNL d   1       2.656  -0.654  -2.376  0.00  0.00     0.047 C 
ATOM      7  C   UNL d   1       2.010  -0.015  -3.606  0.00  0.00     0.200 C 
ATOM      8  C   UNL d   1       0.515  -0.064  -3.487  0.00  0.00    -0.030 C 
ATOM      9  C   UNL d   1      -0.224   0.190  -4.592  0.00  0.00     0.061 C 
ATOM     10  C   UNL d   1      -1.696   0.172  -4.376  0.00  0.00     0.172 C 
ATOM     11  O   UNL d   1      -2.469  -0.332  -5.170  0.00  0.00    -0.289 OA
ATOM     12  C   UNL d   1      -2.151   0.819  -3.114  0.00  0.00     0.052 C 
ATOM     13  C   UNL d   1      -1.391   0.554  -2.030  0.00  0.00    -0.008 C 
ATOM     14  C   UNL d   1      -0.214  -0.335  -2.226  0.00  0.00     0.006 C 
ATOM     15  C   UNL d   1       0.599  -0.559  -0.981  0.00  0.00     0.035 C 
ATOM     16  C   UNL d   1      -0.098   0.060   0.231  0.00  0.00     0.124 C 
ATOM     17  C   UNL d   1      -0.069   1.597   0.161  0.00  0.00     0.045 C 
ATOM     18  C   UNL d   1       1.384   2.019   0.079  0.00  0.00     0.001 C 
ATOM     19  C   UNL d   1       1.660   3.516  -0.009  0.00  0.00     0.131 C 
ATOM     20  C   UNL d   1       2.162   1.423   1.254  0.00  0.00     0.019 C 
ATOM     21  C   UNL d   1      -0.877  -1.685  -2.501  0.00  0.00     0.025 C 
ATOM     22  F   UNL d   1       2.424   1.318  -3.708  0.00  0.00    -0.245 F 
ENDROOT
BRANCH  19  23
ATOM     23  C   UNL d   1       0.501   4.222  -0.665  0.00  0.00     0.186 C 
ATOM     24  O   UNL d   1       0.470   4.345  -1.866  0.00  0.00    -0.292 OA
BRANCH  23  25
ATOM     25  C   UNL d   1      -0.618   4.776   0.178  0.00  0.00     0.260 C 
BRANCH  25  26
ATOM     26  O   UNL d   1      -1.606   5.405  -0.680  0.00  0.00    -0.314 OA
BRANCH  26  27
ATOM     27  C   UNL d   1      -2.675   5.952  -0.081  0.00  0.00     0.255 C 
ATOM     28  O   UNL d   1      -2.782   5.907   1.122  0.00  0.00    -0.266 OA
ATOM     29  C   UNL d   1      -3.742   6.622  -0.908  0.00  0.00     0.126 C 
ENDBRANCH  26  27
ENDBRANCH  25  26
ENDBRANCH  23  25
ENDBRANCH  19  23
BRANCH  19  30
ATOM     30  O   UNL d   1       1.894   4.054   1.294  0.00  0.00    -0.381 OA
ATOM     31  H   UNL d   1       2.075   5.003   1.300  0.00  0.00     0.211 HD
ENDBRANCH  19  30
BRANCH  16  32
ATOM     32  O   UNL d   1      -1.456  -0.382   0.268  0.00  0.00    -0.395 OA
ATOM     33  H   UNL d   1      -1.958  -0.050   1.025  0.00  0.00     0.210 HD
ENDBRANCH  16  32
TORSDOF 6
