REMARK  9 active torsions:
REMARK  status: ('A' for Active; 'I' for Inactive)
REMARK    1  A    between atoms: C_3  and  O_32 
REMARK    2  A    between atoms: C_6  and  CA_7 
REMARK    3  A    between atoms: CA_7  and  C_8 
REMARK    4  A    between atoms: CA_7  and  N_38 
REMARK       I    between atoms: C_8  and  N_10 
REMARK    5  A    between atoms: N_10  and  CA_11 
REMARK    6  A    between atoms: CA_16  and  C_30 
REMARK    7  A    between atoms: C_17  and  C_20 
REMARK    8  A    between atoms: C_20  and  S_21 
REMARK    9  A    between atoms: S_21  and  C_22 
ROOT
ATOM      1  CA  UNL d   1       1.431   0.714  -1.377  0.00  0.00     0.210 C 
ATOM      2  C   UNL d   1       1.393   2.069  -0.707  0.00  0.00     0.187 C 
ATOM      3  N   UNL d   1      -0.078   1.891  -0.622  0.00  0.00    -0.293 N 
ATOM      4  C   UNL d   1      -0.062   0.865  -1.462  0.00  0.00     0.251 C 
ATOM      5  O   UNL d   1      -0.928   0.272  -2.070  0.00  0.00    -0.271 OA
ATOM      6  CA  UNL d   1      -0.967   2.565   0.236  0.00  0.00     0.119 C 
ATOM      7  C   UNL d   1      -0.513   3.204   1.302  0.00  0.00    -0.027 C 
ATOM      8  C   UNL d   1       0.904   3.373   1.747  0.00  0.00     0.113 C 
ATOM      9  S   UNL d   1       1.998   2.117   1.014  0.00  0.00    -0.136 SA
ENDROOT
BRANCH   1  10
ATOM     10  N   UNL d   1       1.871  -0.375  -0.501  0.00  0.00    -0.343 N 
ATOM     11  C   UNL d   1       2.329  -1.525  -1.033  0.00  0.00     0.253 C 
ATOM     12  O   UNL d   1       2.378  -1.659  -2.238  0.00  0.00    -0.271 OA
ATOM     13  H   UNL d   1       1.832  -0.268   0.462  0.00  0.00     0.163 HD
BRANCH  11  14
ATOM     14  CA  UNL d   1       2.782  -2.645  -0.132  0.00  0.00     0.307 C 
BRANCH  14  15
ATOM     15  C   UNL d   1       4.177  -2.361   0.361  0.00  0.00    -0.019 A 
ATOM     16  C   UNL d   1       5.264  -2.628  -0.452  0.00  0.00     0.012 A 
ATOM     17  C   UNL d   1       6.544  -2.364  -0.005  0.00  0.00     0.037 A 
ATOM     18  C   UNL d   1       6.739  -1.839   1.265  0.00  0.00     0.065 A 
ATOM     19  C   UNL d   1       5.648  -1.577   2.080  0.00  0.00     0.037 A 
ATOM     20  C   UNL d   1       4.369  -1.838   1.626  0.00  0.00     0.012 A 
BRANCH  18  21
ATOM     21  O   UNL d   1       7.998  -1.582   1.709  0.00  0.00    -0.361 OA
ATOM     22  H   UNL d   1       8.412  -2.326   2.168  0.00  0.00     0.217 HD
ENDBRANCH  18  21
ENDBRANCH  14  15
BRANCH  14  23
ATOM     23  N   UNL d   1       2.783  -3.925  -0.862  0.00  0.00    -0.062 N 
ATOM     24  H1  UNL d   1       1.838  -4.154  -1.166  0.00  0.00     0.275 HD
ATOM     25  H2  UNL d   1       3.394  -3.862  -1.675  0.00  0.00     0.275 HD
ATOM     26  H3  UNL d   1       3.125  -4.667  -0.241  0.00  0.00     0.275 HD
ENDBRANCH  14  23
ENDBRANCH  11  14
ENDBRANCH   1  10
BRANCH   6  27
ATOM     27  C   UNL d   1      -2.412   2.559  -0.055  0.00  0.00     0.227 C 
ATOM     28  O   UNL d   1      -2.946   1.545  -0.459  0.00  0.00    -0.643 OA
ATOM     29  OXT UNL d   1      -3.141   3.678   0.127  0.00  0.00    -0.643 OA
ENDBRANCH   6  27
BRANCH   7  30
ATOM     30  C   UNL d   1      -1.558   3.844   2.180  0.00  0.00     0.118 C 
BRANCH  30  31
ATOM     31  S   UNL d   1      -1.599   5.630   1.868  0.00  0.00    -0.105 SA
BRANCH  31  32
ATOM     32  C   UNL d   1      -2.853   6.224   2.954  0.00  0.00     0.103 A 
ATOM     33  C   UNL d   1      -3.263   7.513   3.094  0.00  0.00     0.146 A 
ATOM     34  N   UNL d   1      -4.234   7.559   4.005  0.00  0.00    -0.295 N 
ATOM     35  N   UNL d   1      -4.461   6.379   4.468  0.00  0.00    -0.242 N 
ATOM     36  HN  UNL d   1      -4.725   8.405   4.294  1.00  0.00     0.187 HD
ATOM     37  H   UNL d   1      -5.133   6.144   5.169  0.00  0.00     0.208 HD
ATOM     38  N   UNL d   1      -3.601   5.481   3.818  0.00  0.00    -0.279 N 
ATOM     39  HN  UNL d   1      -3.546   4.473   3.963  1.00  0.00     0.189 HD
ENDBRANCH  31  32
ENDBRANCH  30  31
ENDBRANCH   7  30
TORSDOF 9
