REMARK  3 active torsions:
REMARK  status: ('A' for Active; 'I' for Inactive)
REMARK    1  A    between atoms: C_2  and  C_3 
REMARK    2  A    between atoms: C_2  and  N_22 
REMARK    3  A    between atoms: C_3  and  N_20 
ROOT
ATOM      1  C   UNL d   1       0.156   0.912   0.107  0.00  0.00     0.042 C 
ATOM      2  C   UNL d   1      -0.708   1.463   1.242  0.00  0.00     0.211 C 
ENDROOT
BRANCH   2   3
ATOM      3  C   UNL d   1      -0.961   2.955   1.013  0.00  0.00     0.268 C 
BRANCH   3   4
ATOM      4  N   UNL d   1      -1.696   3.131  -0.260  0.00  0.00    -0.052 N 
ATOM      5  C   UNL d   1      -2.922   2.308  -0.255  0.00  0.00     0.338 C 
ATOM      6  C   UNL d   1      -3.650   2.518  -1.557  0.00  0.00     0.250 C 
ATOM      7  O   UNL d   1      -4.328   1.624  -2.016  0.00  0.00    -0.271 OA
ATOM      8  N   UNL d   1      -3.554   3.687  -2.215  0.00  0.00    -0.295 N 
ATOM      9  C   UNL d   1      -2.804   4.697  -1.742  0.00  0.00     0.250 C 
ATOM     10  H   UNL d   1      -4.036   3.803  -3.049  0.00  0.00     0.171 HD
ATOM     11  O   UNL d   1      -2.733   5.734  -2.365  0.00  0.00    -0.271 OA
ATOM     12  C   UNL d   1      -2.051   4.553  -0.445  0.00  0.00     0.338 C 
ATOM     13  H   UNL d   1      -1.094   2.832  -1.036  0.00  0.00     0.281 HD
ENDBRANCH   3   4
ENDBRANCH   2   3
BRANCH   2  14
ATOM     14  N   UNL d   1       0.010   1.286   2.524  0.00  0.00    -0.049 N 
ATOM     15  C   UNL d   1      -0.764   1.892   3.626  0.00  0.00     0.338 C 
ATOM     16  C   UNL d   1      -0.012   1.687   4.915  0.00  0.00     0.250 C 
ATOM     17  O   UNL d   1      -0.123   2.496   5.811  0.00  0.00    -0.271 OA
ATOM     18  N   UNL d   1       0.783   0.615   5.082  0.00  0.00    -0.295 N 
ATOM     19  C   UNL d   1       0.940  -0.298   4.107  0.00  0.00     0.250 C 
ATOM     20  H   UNL d   1       1.253   0.498   5.922  0.00  0.00     0.171 HD
ATOM     21  O   UNL d   1       1.671  -1.248   4.287  0.00  0.00    -0.271 OA
ATOM     22  C   UNL d   1       0.216  -0.152   2.794  0.00  0.00     0.338 C 
ATOM     23  H   UNL d   1       0.924   1.750   2.462  0.00  0.00     0.281 HD
ENDBRANCH   2  14
TORSDOF 3
