REMARK  4 active torsions:
REMARK  status: ('A' for Active; 'I' for Inactive)
REMARK    1  A    between atoms: C_2  and  C_3 
REMARK    2  A    between atoms: C_2  and  C_19 
REMARK    3  A    between atoms: C_3  and  C_4 
REMARK    4  A    between atoms: C_19  and  N_22 
ROOT
ATOM      1  C   UNL d   1      -1.106   1.194   0.190  0.00  0.00     0.053 C 
ATOM      2  C   UNL d   1      -1.374   2.610  -0.134  0.00  0.00    -0.043 A 
ATOM      3  C   UNL d   1      -1.842   2.776  -1.456  0.00  0.00     0.008 A 
ATOM      4  C   UNL d   1      -2.242   3.999  -1.932  0.00  0.00     0.001 A 
ATOM      5  C   UNL d   1      -2.192   5.091  -1.085  0.00  0.00     0.001 A 
ATOM      6  C   UNL d   1      -1.698   4.927   0.183  0.00  0.00     0.007 A 
ATOM      7  C   UNL d   1      -1.249   3.673   0.656  0.00  0.00    -0.051 A 
ATOM      8  C   UNL d   1      -0.663   3.832   2.044  0.00  0.00     0.043 C 
ATOM      9  C   UNL d   1      -1.074   2.780   3.026  0.00  0.00     0.043 C 
ATOM     10  C   UNL d   1      -0.657   1.372   2.662  0.00  0.00    -0.051 A 
ATOM     11  C   UNL d   1      -0.732   0.686   1.527  0.00  0.00    -0.043 A 
ATOM     12  C   UNL d   1      -0.427  -0.691   1.514  0.00  0.00     0.008 A 
ATOM     13  C   UNL d   1       0.003  -1.343   2.642  0.00  0.00     0.001 A 
ATOM     14  C   UNL d   1       0.146  -0.620   3.813  0.00  0.00     0.001 A 
ATOM     15  C   UNL d   1      -0.176   0.712   3.818  0.00  0.00     0.007 A 
ENDROOT
BRANCH   1  16
ATOM     16  C   UNL d   1      -0.002   0.738  -0.766  0.00  0.00     0.020 C 
BRANCH  16  17
ATOM     17  C   UNL d   1       1.357   1.191  -0.229  0.00  0.00     0.008 C 
ATOM     18  C   UNL d   1       1.454   2.716  -0.306  0.00  0.00     0.011 C 
BRANCH  17  19
ATOM     19  C   UNL d   1       2.472   0.566  -1.070  0.00  0.00     0.238 C 
BRANCH  19  20
ATOM     20  N   UNL d   1       2.425  -0.902  -0.905  0.00  0.00    -0.078 N 
ATOM     21  C   UNL d   1       3.231  -1.555  -1.958  0.00  0.00     0.269 C 
ATOM     22  C   UNL d   1       2.938  -1.277   0.429  0.00  0.00     0.269 C 
ATOM     23  H   UNL d   1       1.450  -1.216  -0.988  0.00  0.00     0.278 HD
ENDBRANCH  19  20
ENDBRANCH  17  19
ENDBRANCH  16  17
ENDBRANCH   1  16
TORSDOF 4
