REMARK  3 active torsions:
REMARK  status: ('A' for Active; 'I' for Inactive)
REMARK    1  A    between atoms: CA_3  and  C_18 
REMARK    2  A    between atoms: CA_7  and  N_21 
REMARK    3  A    between atoms: C_10  and  N_11 
ROOT
ATOM      1  C   UNL d   1       3.306   2.207   0.147  0.00  0.00     0.029 C 
ATOM      2  C   UNL d   1       2.518   1.027   0.718  0.00  0.00     0.029 C 
ATOM      3  CA  UNL d   1       2.691  -0.251  -0.152  0.00  0.00     0.186 C 
ATOM      4  N   UNL d   1       1.548  -1.156  -0.002  0.00  0.00    -0.219 NA
ATOM      5  C   UNL d   1       0.259  -0.520   0.326  0.00  0.00     0.160 C 
ATOM      6  S   UNL d   1       0.696   1.259   0.504  0.00  0.00    -0.135 SA
ATOM      7  CA  UNL d   1      -0.297  -0.889  -1.043  0.00  0.00     0.197 C 
ATOM      8  C   UNL d   1       0.994  -1.659  -1.130  0.00  0.00     0.226 C 
ATOM      9  O   UNL d   1       1.402  -2.463  -1.942  0.00  0.00    -0.277 OA
ATOM     10  C   UNL d   1       2.884   0.766   2.180  0.00  0.00     0.029 C 
ENDROOT
BRANCH   7  11
ATOM     11  N   UNL d   1      -1.500  -1.789  -0.973  0.00  0.00    -0.371 N 
ATOM     12  C   UNL d   1      -2.652  -1.399  -1.505  0.00  0.00     0.174 C 
ATOM     13  H   UNL d   1      -1.430  -2.704  -0.513  0.00  0.00     0.161 HD
BRANCH  12  14
ATOM     14  N   UNL d   1      -3.712  -2.262  -1.409  0.00  0.00    -0.377 N 
ATOM     15  C   UNL d   1      -5.008  -1.859  -1.991  0.00  0.00     0.123 C 
ATOM     16  C   UNL d   1      -5.692  -3.016  -2.740  0.00  0.00     0.020 C 
ATOM     17  C   UNL d   1      -4.671  -3.801  -3.525  0.00  0.00     0.002 C 
ATOM     18  C   UNL d   1      -4.152  -4.953  -2.670  0.00  0.00     0.002 C 
ATOM     19  C   UNL d   1      -3.047  -4.590  -1.770  0.00  0.00     0.020 C 
ATOM     20  C   UNL d   1      -3.514  -3.532  -0.748  0.00  0.00     0.123 C 
ENDBRANCH  12  14
ENDBRANCH   7  11
BRANCH   3  21
ATOM     21  C   UNL d   1       3.947  -0.968   0.271  0.00  0.00     0.193 C 
ATOM     22  O   UNL d   1       3.874  -1.960   0.957  0.00  0.00    -0.647 OA
ATOM     23  OXT UNL d   1       5.146  -0.504  -0.114  0.00  0.00    -0.647 OA
ENDBRANCH   3  21
TORSDOF 3
