REMARK  11 active torsions:
REMARK  status: ('A' for Active; 'I' for Inactive)
REMARK    1  A    between atoms: C_2  and  N_27 
REMARK    2  A    between atoms: C_3  and  N_27 
REMARK    3  A    between atoms: C_5  and  C_6 
REMARK    4  A    between atoms: C_5  and  N_27 
REMARK    5  A    between atoms: C_7  and  C_8 
REMARK    6  A    between atoms: C_8  and  O_9 
REMARK    7  A    between atoms: O_9  and  C_10 
REMARK    8  A    between atoms: C_10  and  C_12 
REMARK    9  A    between atoms: C_12  and  C_13 
REMARK   10  A    between atoms: C_12  and  C_19 
REMARK   11  A    between atoms: C_12  and  O_25 
ROOT
ATOM      1  C   UNL d   1      -1.802   3.513   0.262  0.00  0.00     0.176 C 
ENDROOT
BRANCH   1   2
ATOM      2  C   UNL d   1      -0.653   2.572   0.006  0.00  0.00     0.299 C 
ATOM      3  O   UNL d   1      -0.866   1.399  -0.193  0.00  0.00    -0.261 OA
BRANCH   2   4
ATOM      4  O   UNL d   1       0.606   3.037  -0.005  0.00  0.00    -0.307 OA
BRANCH   4   5
ATOM      5  C   UNL d   1       1.661   2.074  -0.264  0.00  0.00     0.272 C 
BRANCH   5   6
ATOM      6  C   UNL d   1       2.965   2.757  -0.239  0.00  0.00    -0.078 C 
ATOM      7  C   UNL d   1       4.005   3.302  -0.219  0.00  0.00    -0.077 C 
BRANCH   7   8
ATOM      8  C   UNL d   1       5.309   3.985  -0.194  0.00  0.00     0.328 C 
BRANCH   8   9
ATOM      9  N   UNL d   1       5.493   4.612   1.132  0.00  0.00    -0.062 N 
ATOM     10  H   UNL d   1       4.667   5.184   1.348  0.00  0.00     0.280 HD
BRANCH   9  11
ATOM     11  C   UNL d   1       5.639   3.569   2.168  0.00  0.00     0.231 C 
ATOM     12  C   UNL d   1       6.862   2.695   1.880  0.00  0.00     0.034 C 
ENDBRANCH   9  11
BRANCH   9  13
ATOM     13  C   UNL d   1       6.688   5.482   1.118  0.00  0.00     0.231 C 
ATOM     14  C   UNL d   1       6.653   6.386   2.352  0.00  0.00     0.034 C 
ENDBRANCH   9  13
ENDBRANCH   8   9
ENDBRANCH   7   8
ENDBRANCH   5   6
ENDBRANCH   4   5
ENDBRANCH   2   4
ENDBRANCH   1   2
BRANCH   1  15
ATOM     15  C   UNL d   1      -2.206   4.176  -1.030  0.00  0.00    -0.014 A 
ATOM     16  C   UNL d   1      -1.616   5.367  -1.409  0.00  0.00     0.011 A 
ATOM     17  C   UNL d   1      -1.986   5.974  -2.595  0.00  0.00     0.001 A 
ATOM     18  C   UNL d   1      -2.946   5.391  -3.400  0.00  0.00     0.000 A 
ATOM     19  C   UNL d   1      -3.535   4.199  -3.021  0.00  0.00     0.001 A 
ATOM     20  C   UNL d   1      -3.162   3.589  -1.838  0.00  0.00     0.011 A 
ENDBRANCH   1  15
BRANCH   1  21
ATOM     21  C   UNL d   1      -2.989   2.729   0.826  0.00  0.00     0.035 C 
ATOM     22  C   UNL d   1      -2.579   2.056   2.137  0.00  0.00     0.008 C 
ATOM     23  C   UNL d   1      -3.765   1.272   2.701  0.00  0.00     0.001 C 
ATOM     24  C   UNL d   1      -4.932   2.228   2.961  0.00  0.00     0.000 C 
ATOM     25  C   UNL d   1      -5.341   2.900   1.649  0.00  0.00     0.001 C 
ATOM     26  C   UNL d   1      -4.155   3.685   1.085  0.00  0.00     0.008 C 
ENDBRANCH   1  21
BRANCH   1  27
ATOM     27  O   UNL d   1      -1.400   4.511   1.203  0.00  0.00    -0.374 OA
ATOM     28  H   UNL d   1      -1.126   4.155   2.060  0.00  0.00     0.211 HD
ENDBRANCH   1  27
TORSDOF 11
