REMARK  10 active torsions:
REMARK  status: ('A' for Active; 'I' for Inactive)
REMARK    1  A    between atoms: N_11  and  C_15 
REMARK    2  A    between atoms: C_15  and  C_16 
REMARK    3  A    between atoms: C_16  and  C_17 
REMARK    4  A    between atoms: C_17  and  N_32 
REMARK    5  A    between atoms: C_18  and  C_19 
REMARK    6  A    between atoms: C_18  and  N_32 
REMARK    7  A    between atoms: C_19  and  C_20 
REMARK    8  A    between atoms: C_19  and  O_28 
REMARK    9  A    between atoms: C_22  and  O_27 
REMARK   10  A    between atoms: C_24  and  O_26 
ROOT
ATOM      1  C   UNL d   1      -0.732   6.028   1.478  0.00  0.00     0.234 C 
ENDROOT
BRANCH   1   2
ATOM      2  C   UNL d   1       0.229   4.837   1.462  0.00  0.00     0.048 C 
BRANCH   2   3
ATOM      3  C   UNL d   1       0.634   4.527   0.020  0.00  0.00     0.132 C 
BRANCH   3   4
ATOM      4  N   UNL d   1       1.554   3.387   0.005  0.00  0.00    -0.335 N 
ATOM      5  C   UNL d   1       1.206   2.051   0.002  0.00  0.00     0.149 A 
ATOM      6  C   UNL d   1       2.399   1.339  -0.014  0.00  0.00     0.145 A 
ATOM      7  C   UNL d   1      -0.016   1.345   0.009  0.00  0.00     0.282 A 
ATOM      8  N   UNL d   1       2.351  -0.046  -0.021  0.00  0.00    -0.287 N 
ATOM      9  N   UNL d   1       3.393   2.231  -0.018  0.00  0.00    -0.336 N 
ATOM     10  C   UNL d   1       3.594  -0.821  -0.037  0.00  0.00     0.163 C 
ATOM     11  C   UNL d   1       1.164  -0.680  -0.013  0.00  0.00     0.332 A 
ATOM     12  N   UNL d   1       0.002  -0.004   0.002  0.00  0.00    -0.269 N 
ATOM     13  O   UNL d   1       1.141  -1.896  -0.019  0.00  0.00    -0.246 OA
ATOM     14  C   UNL d   1      -1.263  -0.743   0.010  0.00  0.00     0.164 C 
ATOM     15  C   UNL d   1       2.900   3.444  -0.007  0.00  0.00     0.185 A 
ATOM     16  HN  UNL d   1       4.386   2.002  -0.029  1.00  0.00     0.168 HD
ATOM     17  O   UNL d   1      -1.075   1.947   0.018  0.00  0.00    -0.265 OA
ENDBRANCH   3   4
ENDBRANCH   2   3
ENDBRANCH   1   2
BRANCH   1  18
ATOM     18  N   UNL d   1      -1.118   6.320   2.871  0.00  0.00    -0.072 N 
ATOM     19  H   UNL d   1      -0.276   6.544   3.415  0.00  0.00     0.277 HD
ATOM     20  H   UNL d   1      -1.577   5.496   3.275  0.00  0.00     0.277 HD
BRANCH  18  21
ATOM     21  C   UNL d   1      -2.046   7.466   2.916  0.00  0.00     0.268 C 
BRANCH  21  22
ATOM     22  C   UNL d   1      -2.427   7.745   4.371  0.00  0.00     0.177 C 
BRANCH  22  23
ATOM     23  C   UNL d   1      -3.469   8.833   4.417  0.00  0.00    -0.023 A 
ATOM     24  C   UNL d   1      -4.801   8.506   4.579  0.00  0.00     0.046 A 
ATOM     25  C   UNL d   1      -5.762   9.507   4.622  0.00  0.00     0.069 A 
ATOM     26  C   UNL d   1      -5.384  10.835   4.503  0.00  0.00     0.073 A 
ATOM     27  C   UNL d   1      -4.046  11.161   4.341  0.00  0.00     0.069 A 
ATOM     28  C   UNL d   1      -3.089  10.157   4.304  0.00  0.00     0.046 A 
BRANCH  25  29
ATOM     29  O   UNL d   1      -7.073   9.184   4.781  0.00  0.00    -0.361 OA
ATOM     30  H   UNL d   1      -7.359   9.143   5.704  0.00  0.00     0.217 HD
ENDBRANCH  25  29
BRANCH  27  31
ATOM     31  O   UNL d   1      -3.673  12.462   4.223  0.00  0.00    -0.361 OA
ATOM     32  H   UNL d   1      -3.471  12.891   5.066  0.00  0.00     0.217 HD
ENDBRANCH  27  31
ENDBRANCH  22  23
BRANCH  22  33
ATOM     33  O   UNL d   1      -1.268   8.164   5.095  0.00  0.00    -0.389 OA
ATOM     34  H   UNL d   1      -0.857   8.967   4.749  0.00  0.00     0.210 HD
ENDBRANCH  22  33
ENDBRANCH  21  22
ENDBRANCH  18  21
ENDBRANCH   1  18
TORSDOF 10
