REMARK  1 active torsions:
REMARK  status: ('A' for Active; 'I' for Inactive)
REMARK    1  A    between atoms: C_5  and  C_7 
ROOT
ATOM      1  C   UNL d   1       1.392  -2.134   0.056  0.00  0.00     0.209 C 
ATOM      2  C   UNL d   1       2.788  -2.375   0.662  0.00  0.00     0.219 C 
ATOM      3  O   UNL d   1       2.695  -3.592   1.402  0.00  0.00    -0.361 OA
ATOM      4  C   UNL d   1       1.357  -4.103   1.258  0.00  0.00     0.404 C 
ATOM      5  C   UNL d   1      -0.745  -3.294   0.312  0.00  0.00     0.342 C 
ATOM      6  C   UNL d   1      -1.694  -2.149   0.285  0.00  0.00     0.248 C 
ATOM      7  O   UNL d   1      -2.867  -2.405   0.455  0.00  0.00    -0.271 OA
ATOM      8  N   UNL d   1      -1.383  -0.894   0.061  0.00  0.00    -0.325 N 
ATOM      9  C   UNL d   1      -0.216  -0.163   0.068  0.00  0.00     0.044 A 
ATOM     10  C   UNL d   1       1.063  -0.678   0.020  0.00  0.00     0.013 A 
ATOM     11  C   UNL d   1       2.150   0.193  -0.043  0.00  0.00     0.036 A 
ATOM     12  C   UNL d   1       1.976   1.559  -0.037  0.00  0.00     0.034 A 
ATOM     13  C   UNL d   1       0.696   2.082   0.031  0.00  0.00     0.026 A 
ATOM     14  C   UNL d   1      -0.382   1.232   0.083  0.00  0.00     0.032 A 
ATOM     15 CL   UNL d   1       3.350   2.617  -0.114  0.00  0.00    -0.084 Cl
ATOM     16  H   UNL d   1      -2.161  -0.344  -0.121  0.00  0.00     0.169 HD
ATOM     17  N   UNL d   1       0.573  -2.925   0.935  0.00  0.00    -0.022 N 
ATOM     18  H   UNL d   1       0.385  -2.393   1.793  0.00  0.00     0.284 HD
ENDROOT
BRANCH   1  19
ATOM     19  C   UNL d   1       1.363  -2.682  -1.348  0.00  0.00     0.007 A 
ATOM     20  C   UNL d   1       0.986  -1.867  -2.401  0.00  0.00     0.043 A 
ATOM     21  C   UNL d   1       0.965  -2.369  -3.690  0.00  0.00     0.024 A 
ATOM     22 CL   UNL d   1       0.547  -0.214  -2.106  0.00  0.00    -0.084 Cl
ATOM     23  C   UNL d   1       1.309  -3.688  -3.923  0.00  0.00     0.002 A 
ATOM     24  C   UNL d   1       1.680  -4.503  -2.870  0.00  0.00     0.001 A 
ATOM     25  C   UNL d   1       1.707  -4.000  -1.583  0.00  0.00     0.012 A 
ENDBRANCH   1  19
TORSDOF 1
