REMARK  7 active torsions:
REMARK  status: ('A' for Active; 'I' for Inactive)
REMARK    1  A    between atoms: C_4  and  C_7 
REMARK    2  A    between atoms: C_7  and  C_8 
REMARK    3  A    between atoms: C_7  and  C_16 
REMARK    4  A    between atoms: C_7  and  O_22 
REMARK    5  A    between atoms: C_8  and  C_9 
REMARK    6  A    between atoms: C_9  and  C_10 
REMARK    7  A    between atoms: C_10  and  N_24 
ROOT
ATOM      1  C   UNL d   1       0.002  -0.004   0.002  0.00  0.00     0.112 C 
ENDROOT
BRANCH   1   2
ATOM      2  C   UNL d   1      -0.018   1.503   0.010  0.00  0.00    -0.019 A 
ATOM      3  C   UNL d   1       1.169   2.210   0.003  0.00  0.00     0.010 A 
ATOM      4  C   UNL d   1       1.151   3.592   0.010  0.00  0.00     0.001 A 
ATOM      5  C   UNL d   1      -0.056   4.267   0.025  0.00  0.00     0.000 A 
ATOM      6  C   UNL d   1      -1.244   3.560   0.032  0.00  0.00     0.001 A 
ATOM      7  C   UNL d   1      -1.225   2.178   0.020  0.00  0.00     0.010 A 
ENDBRANCH   1   2
BRANCH   1   8
ATOM      8  C   UNL d   1      -1.247  -0.527  -0.710  0.00  0.00     0.050 C 
BRANCH   8   9
ATOM      9  C   UNL d   1      -1.290  -2.053  -0.610  0.00  0.00     0.031 C 
BRANCH   9  10
ATOM     10  C   UNL d   1      -2.539  -2.576  -1.322  0.00  0.00     0.235 C 
BRANCH  10  11
ATOM     11  N   UNL d   1      -2.576  -4.048  -1.197  0.00  0.00    -0.071 N 
ATOM     12  C   UNL d   1      -1.468  -4.649  -1.968  0.00  0.00     0.235 C 
ATOM     13  C   UNL d   1      -1.457  -6.160  -1.727  0.00  0.00     0.028 C 
ATOM     14  C   UNL d   1      -2.790  -6.756  -2.190  0.00  0.00     0.003 C 
ATOM     15  C   UNL d   1      -3.934  -6.072  -1.437  0.00  0.00     0.028 C 
ATOM     16  C   UNL d   1      -3.873  -4.563  -1.686  0.00  0.00     0.235 C 
ATOM     17  H   UNL d   1      -2.469  -4.301  -0.208  0.00  0.00     0.279 HD
ENDBRANCH  10  11
ENDBRANCH   9  10
ENDBRANCH   8   9
ENDBRANCH   1   8
BRANCH   1  18
ATOM     18  C   UNL d   1       0.022  -0.514   1.420  0.00  0.00    -0.019 A 
ATOM     19  C   UNL d   1       1.229  -0.732   2.059  0.00  0.00     0.010 A 
ATOM     20  C   UNL d   1       1.248  -1.199   3.360  0.00  0.00     0.001 A 
ATOM     21  C   UNL d   1       0.060  -1.449   4.021  0.00  0.00     0.000 A 
ATOM     22  C   UNL d   1      -1.147  -1.231   3.383  0.00  0.00     0.001 A 
ATOM     23  C   UNL d   1      -1.165  -0.759   2.084  0.00  0.00     0.010 A 
ENDBRANCH   1  18
BRANCH   1  24
ATOM     24  O   UNL d   1       1.169  -0.461  -0.685  0.00  0.00    -0.380 OA
ATOM     25  H   UNL d   1       1.222  -0.170  -1.606  0.00  0.00     0.211 HD
ENDBRANCH   1  24
TORSDOF 7
