REMARK  17 active torsions:
REMARK  status: ('A' for Active; 'I' for Inactive)
REMARK    1  A    between atoms: C_2  and  N_53 
REMARK    2  A    between atoms: C_3  and  O_19 
REMARK    3  A    between atoms: C_4  and  O_18 
REMARK    4  A    between atoms: C_5  and  O_7 
REMARK    5  A    between atoms: C_6  and  N_45 
REMARK    6  A    between atoms: O_7  and  C_8 
REMARK    7  A    between atoms: C_9  and  O_17 
REMARK    8  A    between atoms: C_10  and  N_47 
REMARK    9  A    between atoms: C_11  and  O_16 
REMARK   10  A    between atoms: C_12  and  C_14 
REMARK   11  A    between atoms: C_14  and  O_15 
REMARK   12  A    between atoms: O_19  and  C_20 
REMARK   13  A    between atoms: C_21  and  N_51 
REMARK   14  A    between atoms: C_22  and  O_28 
REMARK   15  A    between atoms: C_23  and  O_27 
REMARK   16  A    between atoms: C_24  and  C_26 
REMARK   17  A    between atoms: C_26  and  N_49 
ROOT
ATOM      1  C   UNL d   1       1.368   1.969  -2.759  0.00  0.00     0.071 C 
ATOM      2  C   UNL d   1       2.320   1.466  -1.671  0.00  0.00     0.217 C 
ATOM      3  C   UNL d   1       1.841   1.962  -0.305  0.00  0.00     0.186 C 
ATOM      4  C   UNL d   1       0.432   1.431  -0.035  0.00  0.00     0.180 C 
ATOM      5  C   UNL d   1      -0.520   1.934  -1.123  0.00  0.00     0.186 C 
ATOM      6  C   UNL d   1      -0.041   1.438  -2.489  0.00  0.00     0.217 C 
ENDROOT
BRANCH   3   7
ATOM      7  O   UNL d   1       2.730   1.492   0.710  0.00  0.00    -0.349 OA
BRANCH   7   8
ATOM      8  C   UNL d   1       2.830   2.359   1.841  0.00  0.00     0.294 C 
ATOM      9  O   UNL d   1       1.606   2.326   2.578  0.00  0.00    -0.349 OA
ATOM     10  C   UNL d   1       1.590   3.182   3.722  0.00  0.00     0.181 C 
ATOM     11  C   UNL d   1       2.688   2.750   4.697  0.00  0.00     0.179 C 
ATOM     12  C   UNL d   1       4.042   2.792   3.980  0.00  0.00     0.184 C 
ATOM     13  C   UNL d   1       3.979   1.894   2.741  0.00  0.00     0.269 C 
BRANCH  10  14
ATOM     14  C   UNL d   1       0.228   3.086   4.412  0.00  0.00     0.264 C 
BRANCH  14  15
ATOM     15  N   UNL d   1      -0.823   3.481   3.458  0.00  0.00    -0.077 N 
ATOM     16  H   UNL d   1      -1.736   3.444   3.909  0.00  0.00     0.274 HD
ATOM     17  H   UNL d   1      -0.650   4.426   3.120  0.00  0.00     0.274 HD
ATOM     18  H   UNL d   1      -0.816   2.834   2.661  0.00  0.00     0.274 HD
ENDBRANCH  14  15
ENDBRANCH  10  14
BRANCH  11  19
ATOM     19  O   UNL d   1       2.428   1.421   5.151  0.00  0.00    -0.390 OA
ATOM     20  H   UNL d   1       3.086   1.081   5.773  0.00  0.00     0.210 HD
ENDBRANCH  11  19
BRANCH  12  21
ATOM     21  O   UNL d   1       5.064   2.320   4.861  0.00  0.00    -0.391 OA
ATOM     22  H   UNL d   1       5.154   2.839   5.672  0.00  0.00     0.210 HD
ENDBRANCH  12  21
BRANCH  13  23
ATOM     23  N   UNL d   1       3.725   0.506   3.164  0.00  0.00    -0.068 N 
ATOM     24  H   UNL d   1       3.697  -0.107   2.352  0.00  0.00     0.275 HD
ATOM     25  H   UNL d   1       4.458   0.195   3.799  0.00  0.00     0.275 HD
ATOM     26  H   UNL d   1       2.821   0.461   3.649  0.00  0.00     0.275 HD
ENDBRANCH  13  23
ENDBRANCH   7   8
ENDBRANCH   3   7
BRANCH   2  27
ATOM     27  N   UNL d   1       3.685   1.964  -1.912  0.00  0.00    -0.072 N 
ATOM     28  H   UNL d   1       4.012   1.661  -2.828  0.00  0.00     0.274 HD
ATOM     29  H   UNL d   1       3.699   2.982  -1.867  0.00  0.00     0.274 HD
ATOM     30  H   UNL d   1       4.313   1.589  -1.191  0.00  0.00     0.274 HD
ENDBRANCH   2  27
BRANCH   4  31
ATOM     31  O   UNL d   1       0.451   0.002  -0.043  0.00  0.00    -0.390 OA
ATOM     32  H   UNL d   1      -0.411  -0.404   0.122  0.00  0.00     0.210 HD
ENDBRANCH   4  31
BRANCH   5  33
ATOM     33  O   UNL d   1      -1.836   1.439  -0.870  0.00  0.00    -0.349 OA
BRANCH  33  34
ATOM     34  C   UNL d   1      -2.632   2.296  -0.049  0.00  0.00     0.291 C 
ATOM     35  O   UNL d   1      -2.970   3.476  -0.780  0.00  0.00    -0.349 OA
ATOM     36  C   UNL d   1      -3.749   4.418  -0.039  0.00  0.00     0.179 C 
ATOM     37  C   UNL d   1      -5.076   3.773   0.369  0.00  0.00     0.182 C 
ATOM     38  C   UNL d   1      -4.790   2.510   1.187  0.00  0.00     0.247 C 
ATOM     39  C   UNL d   1      -3.914   1.565   0.358  0.00  0.00     0.206 C 
BRANCH  36  40
ATOM     40  C   UNL d   1      -4.025   5.647  -0.908  0.00  0.00     0.198 C 
BRANCH  40  41
ATOM     41  O   UNL d   1      -2.794   6.315  -1.193  0.00  0.00    -0.398 OA
ATOM     42  H   UNL d   1      -2.893   7.106  -1.741  0.00  0.00     0.209 HD
ENDBRANCH  40  41
ENDBRANCH  36  40
BRANCH  37  43
ATOM     43  O   UNL d   1      -5.818   3.427  -0.802  0.00  0.00    -0.391 OA
ATOM     44  H   UNL d   1      -6.031   4.180  -1.370  0.00  0.00     0.210 HD
ENDBRANCH  37  43
BRANCH  38  45
ATOM     45  N   UNL d   1      -6.064   1.837   1.496  0.00  0.00    -0.070 N 
ATOM     46  H   UNL d   1      -5.892   1.006   2.060  0.00  0.00     0.274 HD
ATOM     47  H   UNL d   1      -6.679   2.471   2.005  0.00  0.00     0.274 HD
ATOM     48  H   UNL d   1      -6.520   1.559   0.619  0.00  0.00     0.274 HD
ENDBRANCH  38  45
BRANCH  39  49
ATOM     49  O   UNL d   1      -4.626   1.159  -0.812  0.00  0.00    -0.388 OA
ATOM     50  H   UNL d   1      -4.128   0.562  -1.388  0.00  0.00     0.210 HD
ENDBRANCH  39  49
ENDBRANCH  33  34
ENDBRANCH   5  33
BRANCH   6  51
ATOM     51  N   UNL d   1      -0.007  -0.035  -2.476  0.00  0.00    -0.072 N 
ATOM     52  H   UNL d   1      -0.954  -0.405  -2.408  0.00  0.00     0.274 HD
ATOM     53  H   UNL d   1       0.432  -0.382  -3.327  0.00  0.00     0.274 HD
ATOM     54  H   UNL d   1       0.536  -0.353  -1.665  0.00  0.00     0.274 HD
ENDBRANCH   6  51
TORSDOF 17
