REMARK  15 active torsions:
REMARK  status: ('A' for Active; 'I' for Inactive)
REMARK    1  A    between atoms: C_1  and  C_2 
REMARK    2  A    between atoms: C_1  and  N_21 
REMARK    3  A    between atoms: C_4  and  C_5 
REMARK    4  A    between atoms: C_4  and  N_21 
REMARK    5  A    between atoms: C_5  and  C_6 
REMARK    6  A    between atoms: C_5  and  O_16 
REMARK    7  A    between atoms: C_6  and  C_7 
REMARK    8  A    between atoms: C_6  and  O_15 
REMARK    9  A    between atoms: C_7  and  C_8 
REMARK   10  A    between atoms: C_7  and  O_14 
REMARK   11  A    between atoms: C_8  and  C_9 
REMARK   12  A    between atoms: C_8  and  O_13 
REMARK   13  A    between atoms: C_9  and  N_24 
REMARK   14  A    between atoms: C_10  and  C_11 
REMARK   15  A    between atoms: C_10  and  N_24 
ROOT
ATOM      1  C   UNL d   1      -4.396   0.794  -2.272  0.00  0.00     0.179 C 
ENDROOT
BRANCH   1   2
ATOM      2  C   UNL d   1      -5.173   1.238  -3.513  0.00  0.00     0.175 C 
BRANCH   2   3
ATOM      3  C   UNL d   1      -6.620   0.754  -3.409  0.00  0.00     0.266 C 
BRANCH   3   4
ATOM      4  N   UNL d   1      -7.330   1.081  -4.660  0.00  0.00    -0.072 N 
ATOM      5  H   UNL d   1      -7.312   2.097  -4.804  0.00  0.00     0.277 HD
ATOM      6  H   UNL d   1      -6.863   0.615  -5.446  0.00  0.00     0.277 HD
BRANCH   4   7
ATOM      7  C   UNL d   1      -8.731   0.624  -4.587  0.00  0.00     0.247 C 
BRANCH   7   8
ATOM      8  C   UNL d   1      -9.441   0.976  -5.896  0.00  0.00     0.142 C 
ATOM      9 CL   UNL d   1     -11.155   0.422  -5.817  0.00  0.00    -0.129 Cl
ENDBRANCH   7   8
ENDBRANCH   4   7
ENDBRANCH   3   4
ENDBRANCH   2   3
BRANCH   2  10
ATOM     10  O   UNL d   1      -5.153   2.664  -3.602  0.00  0.00    -0.391 OA
ATOM     11  H   UNL d   1      -5.549   3.111  -2.842  0.00  0.00     0.210 HD
ENDBRANCH   2  10
ENDBRANCH   1   2
BRANCH   1  12
ATOM     12  C   UNL d   1      -2.984   1.383  -2.316  0.00  0.00     0.179 C 
BRANCH  12  13
ATOM     13  C   UNL d   1      -2.207   0.938  -1.076  0.00  0.00     0.175 C 
BRANCH  13  14
ATOM     14  C   UNL d   1      -0.795   1.527  -1.120  0.00  0.00     0.266 C 
BRANCH  14  15
ATOM     15  N   UNL d   1      -0.015   0.998   0.015  0.00  0.00    -0.072 N 
ATOM     16  H   UNL d   1       0.032  -0.025  -0.054  0.00  0.00     0.277 HD
ATOM     17  H   UNL d   1      -0.475   1.261   0.894  0.00  0.00     0.277 HD
BRANCH  15  18
ATOM     18  C   UNL d   1       1.353   1.550  -0.003  0.00  0.00     0.247 C 
BRANCH  18  19
ATOM     19  C   UNL d   1       2.136   0.985   1.184  0.00  0.00     0.142 C 
ATOM     20 CL   UNL d   1       3.811   1.653   1.171  0.00  0.00    -0.129 Cl
ENDBRANCH  18  19
ENDBRANCH  15  18
ENDBRANCH  14  15
ENDBRANCH  13  14
BRANCH  13  21
ATOM     21  O   UNL d   1      -2.879   1.399   0.098  0.00  0.00    -0.391 OA
ATOM     22  H   UNL d   1      -2.969   2.361   0.147  0.00  0.00     0.210 HD
ENDBRANCH  13  21
ENDBRANCH  12  13
BRANCH  12  23
ATOM     23  O   UNL d   1      -2.312   0.921  -3.490  0.00  0.00    -0.390 OA
ATOM     24  H   UNL d   1      -2.222  -0.040  -3.539  0.00  0.00     0.210 HD
ENDBRANCH  12  23
ENDBRANCH   1  12
BRANCH   1  25
ATOM     25  O   UNL d   1      -5.068   1.255  -1.099  0.00  0.00    -0.390 OA
ATOM     26  H   UNL d   1      -5.158   2.217  -1.049  0.00  0.00     0.210 HD
ENDBRANCH   1  25
TORSDOF 15
