REMARK  6 active torsions:
REMARK  status: ('A' for Active; 'I' for Inactive)
REMARK    1  A    between atoms: C_2  and  C_5 
REMARK    2  A    between atoms: C_6  and  C_7 
REMARK    3  A    between atoms: C_8  and  C_9 
REMARK    4  A    between atoms: C_9  and  N_22 
REMARK    5  A    between atoms: C_11  and  C_12 
REMARK    6  A    between atoms: C_11  and  N_22 
ROOT
ATOM      1  C   UNL d   1      -3.175   3.114  -2.204  0.00  0.00     0.270 C 
ATOM      2  N   UNL d   1      -2.930   4.274  -1.321  0.00  0.00    -0.068 N 
ATOM      3  H   UNL d   1      -2.130   4.806  -1.683  0.00  0.00     0.280 HD
ENDROOT
BRANCH   2   4
ATOM      4  C   UNL d   1      -4.119   5.152  -1.300  0.00  0.00     0.262 C 
BRANCH   4   5
ATOM      5  C   UNL d   1      -4.282   5.782  -2.659  0.00  0.00     0.009 C 
ATOM      6  C   UNL d   1      -5.436   5.671  -3.309  0.00  0.00     0.062 C 
BRANCH   6   7
ATOM      7  C   UNL d   1      -5.591   6.271  -4.600  0.00  0.00    -0.078 C 
ATOM      8  C   UNL d   1      -5.718   6.762  -5.659  0.00  0.00    -0.093 C 
BRANCH   8   9
ATOM      9  C   UNL d   1      -5.877   7.378  -6.986  0.00  0.00     0.013 C 
ATOM     10  C   UNL d   1      -7.289   7.104  -7.510  0.00  0.00     0.028 C 
ATOM     11  C   UNL d   1      -5.659   8.888  -6.877  0.00  0.00     0.028 C 
ATOM     12  C   UNL d   1      -4.851   6.782  -7.951  0.00  0.00     0.028 C 
ENDBRANCH   8   9
ENDBRANCH   6   7
ENDBRANCH   4   5
ENDBRANCH   2   4
BRANCH   2  13
ATOM     13  C   UNL d   1      -2.620   3.811   0.048  0.00  0.00     0.274 C 
BRANCH  13  14
ATOM     14  C   UNL d   1      -1.288   3.106   0.032  0.00  0.00    -0.021 A 
ATOM     15  C   UNL d   1      -0.095   3.848   0.024  0.00  0.00    -0.018 A 
ATOM     16  C   UNL d   1       1.147   3.167   0.008  0.00  0.00    -0.025 A 
ATOM     17  C   UNL d   1      -0.111   5.254   0.031  0.00  0.00     0.013 A 
ATOM     18  C   UNL d   1       1.163   1.762   0.000  0.00  0.00     0.012 A 
ATOM     19  C   UNL d   1       2.340   3.910   0.000  0.00  0.00     0.012 A 
ATOM     20  C   UNL d   1      -0.013   1.076   0.008  0.00  0.00     0.002 A 
ATOM     21  C   UNL d   1      -1.234   1.746   0.017  0.00  0.00     0.010 A 
ATOM     22  C   UNL d   1       2.287   5.270   0.008  0.00  0.00     0.001 A 
ATOM     23  C   UNL d   1       1.064   5.940   0.023  0.00  0.00     0.001 A 
ENDBRANCH  13  14
ENDBRANCH   2  13
TORSDOF 6
