REMARK  8 active torsions:
REMARK  status: ('A' for Active; 'I' for Inactive)
REMARK    1  A    between atoms: C_2  and  O_4 
REMARK    2  A    between atoms: O_4  and  C_5 
REMARK    3  A    between atoms: C_5  and  C_6 
REMARK    4  A    between atoms: CA_7  and  C_27 
REMARK    5  A    between atoms: CA_10  and  N_13 
REMARK       I    between atoms: N_13  and  C_14 
REMARK    6  A    between atoms: C_14  and  C_16 
REMARK    7  A    between atoms: C_16  and  S_17 
REMARK    8  A    between atoms: S_17  and  C_18 
ROOT
ATOM      1  C   UNL d   1      -0.008  -0.015  -0.012  0.00  0.00    -0.013 C 
ATOM      2  CA  UNL d   1       1.194  -0.562  -0.119  0.00  0.00     0.121 C 
ATOM      3  N   UNL d   1       1.334  -1.956  -0.166  0.00  0.00    -0.293 N 
ATOM      4  C   UNL d   1       0.333  -2.981   0.234  0.00  0.00     0.187 C 
ATOM      5  CA  UNL d   1       1.088  -4.011  -0.585  0.00  0.00     0.210 C 
ATOM      6  C   UNL d   1       2.119  -2.909  -0.655  0.00  0.00     0.251 C 
ATOM      7  O   UNL d   1       3.272  -2.899  -1.030  0.00  0.00    -0.271 OA
ATOM      8  S   UNL d   1      -1.256  -2.426  -0.472  0.00  0.00    -0.136 SA
ATOM      9  C   UNL d   1      -1.329  -0.703   0.110  0.00  0.00     0.115 C 
ENDROOT
BRANCH   5  10
ATOM     10  N   UNL d   1       1.514  -5.191   0.173  0.00  0.00    -0.344 N 
ATOM     11  C   UNL d   1       1.723  -6.360  -0.464  0.00  0.00     0.228 C 
ATOM     12  O   UNL d   1       1.558  -6.436  -1.663  0.00  0.00    -0.273 OA
ATOM     13  H   UNL d   1       1.646  -5.130   1.132  0.00  0.00     0.163 HD
BRANCH  11  14
ATOM     14  C   UNL d   1       2.162  -7.574   0.315  0.00  0.00     0.182 C 
BRANCH  14  15
ATOM     15  S   UNL d   1       2.357  -8.979  -0.815  0.00  0.00    -0.121 SA
BRANCH  15  16
ATOM     16  C   UNL d   1       2.865 -10.301   0.234  0.00  0.00     0.003 A 
ATOM     17  C   UNL d   1       3.118 -11.571  -0.287  0.00  0.00     0.035 A 
ATOM     18  C   UNL d   1       3.514 -12.578   0.567  0.00  0.00     0.089 A 
ATOM     19  N   UNL d   1       3.654 -12.353   1.860  0.00  0.00    -0.375 N 
ATOM     20  C   UNL d   1       3.424 -11.167   2.391  0.00  0.00     0.089 A 
ATOM     21  HN  UNL d   1       3.948 -13.119   2.467  1.00  0.00     0.164 HD
ATOM     22  C   UNL d   1       3.031 -10.105   1.605  0.00  0.00     0.035 A 
ENDBRANCH  15  16
ENDBRANCH  14  15
ENDBRANCH  11  14
ENDBRANCH   5  10
BRANCH   2  23
ATOM     23  C   UNL d   1       2.390   0.298  -0.181  0.00  0.00     0.227 C 
ATOM     24  O   UNL d   1       3.482  -0.193  -0.386  0.00  0.00    -0.643 OA
ATOM     25  OXT UNL d   1       2.271   1.630  -0.013  0.00  0.00    -0.643 OA
ENDBRANCH   2  23
BRANCH   1  26
ATOM     26  C   UNL d   1      -0.049   1.491  -0.023  0.00  0.00     0.216 C 
BRANCH  26  27
ATOM     27  O   UNL d   1      -1.431   1.938  -0.018  0.00  0.00    -0.317 OA
BRANCH  27  28
ATOM     28  C   UNL d   1      -1.645   3.258  -0.129  0.00  0.00     0.255 C 
ATOM     29  C   UNL d   1      -3.044   3.807  -0.018  0.00  0.00     0.126 C 
ATOM     30  O   UNL d   1      -0.716   4.007  -0.319  0.00  0.00    -0.266 OA
ENDBRANCH  27  28
ENDBRANCH  26  27
ENDBRANCH   1  26
TORSDOF 8
