REMARK  10 active torsions:
REMARK  status: ('A' for Active; 'I' for Inactive)
REMARK    1  A    between atoms: C_2  and  C_3 
REMARK    2  A    between atoms: C_2  and  N_36 
REMARK    3  A    between atoms: C_6  and  N_34 
REMARK    4  A    between atoms: C_7  and  O_9 
REMARK    5  A    between atoms: O_9  and  C_10 
REMARK    6  A    between atoms: C_11  and  N_32 
REMARK    7  A    between atoms: C_12  and  O_20 
REMARK    8  A    between atoms: C_13  and  O_18 
REMARK    9  A    between atoms: C_14  and  N_29 
REMARK   10  A    between atoms: C_15  and  O_16 
ROOT
ATOM      1  C   UNL d   1      -2.382   3.527  -2.398  0.00  0.00     0.188 C 
ATOM      2  C   UNL d   1      -3.643   2.700  -2.651  0.00  0.00     0.246 C 
ATOM      3  C   UNL d   1      -3.250   1.310  -3.158  0.00  0.00     0.182 C 
ATOM      4  C   UNL d   1      -2.384   0.611  -2.108  0.00  0.00     0.184 C 
ATOM      5  C   UNL d   1      -1.122   1.439  -1.855  0.00  0.00     0.247 C 
ATOM      6  C   UNL d   1      -1.516   2.828  -1.348  0.00  0.00     0.182 C 
ENDROOT
BRANCH   1   7
ATOM      7  O   UNL d   1      -2.749   4.824  -1.925  0.00  0.00    -0.349 OA
BRANCH   7   8
ATOM      8  C   UNL d   1      -2.981   5.777  -2.964  0.00  0.00     0.291 C 
ATOM      9  C   UNL d   1      -3.619   7.036  -2.369  0.00  0.00     0.238 C 
ATOM     10  C   UNL d   1      -2.646   7.667  -1.368  0.00  0.00     0.040 C 
ATOM     11  C   UNL d   1      -1.322   7.966  -2.078  0.00  0.00     0.036 C 
ATOM     12  C   UNL d   1      -0.773   6.671  -2.684  0.00  0.00     0.154 C 
ATOM     13  O   UNL d   1      -1.739   6.120  -3.582  0.00  0.00    -0.352 OA
BRANCH   9  14
ATOM     14  N   UNL d   1      -4.857   6.661  -1.664  0.00  0.00    -0.070 N 
ATOM     15  H   UNL d   1      -5.305   7.491  -1.280  0.00  0.00     0.274 HD
ATOM     16  H   UNL d   1      -5.497   6.196  -2.305  0.00  0.00     0.274 HD
ATOM     17  H   UNL d   1      -4.627   6.019  -0.896  0.00  0.00     0.274 HD
ENDBRANCH   9  14
BRANCH  12  18
ATOM     18  C   UNL d   1       0.518   6.972  -3.447  0.00  0.00     0.208 C 
ATOM     19  C   UNL d   1       1.053   5.683  -4.073  0.00  0.00     0.042 C 
BRANCH  18  20
ATOM     20  N   UNL d   1       0.238   7.974  -4.490  0.00  0.00    -0.073 N 
ATOM     21  H   UNL d   1       1.084   8.170  -5.023  0.00  0.00     0.274 HD
ATOM     22  H   UNL d   1      -0.486   7.629  -5.119  0.00  0.00     0.274 HD
ATOM     23  H   UNL d   1      -0.088   8.841  -4.047  0.00  0.00     0.274 HD
ENDBRANCH  18  20
ENDBRANCH  12  18
ENDBRANCH   7   8
ENDBRANCH   1   7
BRANCH   6  24
ATOM     24  O   UNL d   1      -2.253   2.699  -0.131  0.00  0.00    -0.391 OA
ATOM     25  H   UNL d   1      -2.536   3.543   0.248  0.00  0.00     0.210 HD
ENDBRANCH   6  24
BRANCH   2  26
ATOM     26  N   UNL d   1      -4.384   2.558  -1.385  0.00  0.00    -0.070 N 
ATOM     27  H   UNL d   1      -4.722   3.468  -1.075  0.00  0.00     0.274 HD
ATOM     28  H   UNL d   1      -5.174   1.928  -1.511  0.00  0.00     0.274 HD
ATOM     29  H   UNL d   1      -3.757   2.171  -0.669  0.00  0.00     0.274 HD
ENDBRANCH   2  26
BRANCH   5  30
ATOM     30  N   UNL d   1      -0.294   0.761  -0.839  0.00  0.00    -0.070 N 
ATOM     31  C   UNL d   1       1.125   1.128  -1.007  0.00  0.00     0.267 C 
ATOM     32  H   UNL d   1      -0.396  -0.256  -0.943  0.00  0.00     0.277 HD
ATOM     33  H   UNL d   1      -0.609   1.042   0.097  0.00  0.00     0.277 HD
ENDBRANCH   5  30
BRANCH   3  34
ATOM     34  O   UNL d   1      -4.428   0.538  -3.394  0.00  0.00    -0.391 OA
ATOM     35  H   UNL d   1      -5.026   0.922  -4.050  0.00  0.00     0.210 HD
ENDBRANCH   3  34
BRANCH   4  36
ATOM     36  O   UNL d   1      -3.121   0.483  -0.891  0.00  0.00    -0.386 OA
ATOM     37  C   UNL d   1      -3.875  -0.727  -0.792  0.00  0.00     0.202 C 
ENDBRANCH   4  36
TORSDOF 10
