REMARK  2 active torsions:
REMARK  status: ('A' for Active; 'I' for Inactive)
REMARK    1  A    between atoms: C_10  and  O_13 
REMARK    2  A    between atoms: C_18  and  O_22 
ROOT
ATOM      1  C   UNL d   1      -0.732   1.967  -1.271  0.00  0.00     0.020 C 
ATOM      2  C   UNL d   1      -0.019   1.538   0.011  0.00  0.00     0.003 C 
ATOM      3  C   UNL d   1      -0.659   2.191   1.210  0.00  0.00     0.014 C 
ATOM      4  C   UNL d   1      -0.333   3.696   1.195  0.00  0.00     0.006 C 
ATOM      5  C   UNL d   1       1.172   3.915   1.231  0.00  0.00    -0.002 C 
ATOM      6  C   UNL d   1       1.852   3.274   0.010  0.00  0.00    -0.005 C 
ATOM      7  C   UNL d   1       1.496   1.818  -0.006  0.00  0.00     0.002 C 
ATOM      8  C   UNL d   1       1.956   0.955  -1.187  0.00  0.00     0.010 C 
ATOM      9  C   UNL d   1       1.150  -0.359  -0.964  0.00  0.00     0.052 C 
ATOM     10  C   UNL d   1      -0.007  -0.004   0.007  0.00  0.00     0.128 C 
ATOM     11  C   UNL d   1      -1.285  -0.513  -0.504  0.00  0.00    -0.078 C 
ATOM     12  C   UNL d   1      -2.308  -0.921  -0.913  0.00  0.00     0.015 C 
ATOM     13  C   UNL d   1       1.514   4.024  -1.269  0.00  0.00     0.009 C 
ATOM     14  C   UNL d   1       2.064   5.458  -1.167  0.00  0.00     0.034 C 
ATOM     15  C   UNL d   1       1.385   6.088   0.040  0.00  0.00    -0.077 C 
ATOM     16  C   UNL d   1       0.702   7.180  -0.125  0.00  0.00     0.007 C 
ATOM     17  C   UNL d   1      -0.000   7.867   1.014  0.00  0.00     0.141 C 
ATOM     18  C   UNL d   1       0.772   7.574   2.305  0.00  0.00     0.036 C 
ATOM     19  C   UNL d   1       0.817   6.057   2.499  0.00  0.00     0.012 C 
ATOM     20  C   UNL d   1       1.550   5.384   1.355  0.00  0.00     0.019 C 
ENDROOT
BRANCH  10  21
ATOM     21  O   UNL d   1       0.259  -0.498   1.315  0.00  0.00    -0.377 OA
ATOM     22  H   UNL d   1       0.279  -1.464   1.374  0.00  0.00     0.211 HD
ENDBRANCH  10  21
BRANCH  17  23
ATOM     23  O   UNL d   1      -0.033   9.275   0.780  0.00  0.00    -0.392 OA
ATOM     24  H   UNL d   1      -0.508   9.529  -0.023  0.00  0.00     0.210 HD
ENDBRANCH  17  23
TORSDOF 2
