REMARK  7 active torsions:
REMARK  status: ('A' for Active; 'I' for Inactive)
REMARK    1  A    between atoms: C_2  and  O_32 
REMARK    2  A    between atoms: C_7  and  O_30 
REMARK    3  A    between atoms: C_12  and  O_29 
REMARK    4  A    between atoms: C_13  and  O_28 
REMARK    5  A    between atoms: C_17  and  N_40 
REMARK    6  A    between atoms: C_18  and  O_25 
REMARK    7  A    between atoms: C_19  and  C_22 
REMARK       I    between atoms: C_22  and  N_24 
ROOT
ATOM      1  C   UNL d   1       0.723   3.776  -0.613  0.00  0.00     0.052 C 
ATOM      2  C   UNL d   1       1.012   2.549   0.255  0.00  0.00     0.092 C 
ATOM      3  C   UNL d   1      -0.289   1.908   0.661  0.00  0.00     0.015 A 
ATOM      4  C   UNL d   1      -1.445   2.662   0.713  0.00  0.00     0.044 A 
ATOM      5  C   UNL d   1      -2.641   2.078   1.098  0.00  0.00     0.027 A 
ATOM      6  C   UNL d   1      -2.691   0.740   1.436  0.00  0.00     0.039 A 
ATOM      7  C   UNL d   1      -1.540  -0.033   1.386  0.00  0.00     0.080 A 
ATOM      8  C   UNL d   1      -0.331   0.553   0.991  0.00  0.00     0.059 A 
ATOM      9  C   UNL d   1       0.901  -0.258   0.914  0.00  0.00     0.195 C 
ATOM     10  O   UNL d   1       0.944  -1.369   1.411  0.00  0.00    -0.287 OA
ATOM     11  C   UNL d   1       2.039   0.284   0.246  0.00  0.00     0.033 C 
ATOM     12  C   UNL d   1       3.203  -0.366   0.329  0.00  0.00     0.097 C 
ATOM     13  C   UNL d   1       4.470   0.085  -0.346  0.00  0.00     0.177 C 
ATOM     14  C   UNL d   1       4.123   1.092  -1.443  0.00  0.00     0.073 C 
ATOM     15  C   UNL d   1       3.219   2.175  -0.862  0.00  0.00     0.024 C 
ATOM     16  C   UNL d   1       1.863   1.558  -0.536  0.00  0.00     0.065 C 
ATOM     17  C   UNL d   1       5.371   1.685  -2.072  0.00  0.00     0.252 C 
ATOM     18  C   UNL d   1       6.353   2.176  -1.051  0.00  0.00     0.094 C 
ATOM     19  C   UNL d   1       6.337   1.739   0.250  0.00  0.00     0.112 C 
ATOM     20  C   UNL d   1       5.323   0.785   0.696  0.00  0.00     0.208 C 
ATOM     21  O   UNL d   1       5.166   0.557   1.878  0.00  0.00    -0.288 OA
ATOM     22 CL   UNL d   1      -1.399   4.345   0.293  0.00  0.00    -0.084 Cl
ENDROOT
BRANCH  19  23
ATOM     23  C   UNL d   1       7.346   2.233   1.200  0.00  0.00     0.255 C 
ATOM     24  O   UNL d   1       8.294   1.532   1.500  0.00  0.00    -0.268 OA
ATOM     25  N   UNL d   1       7.220   3.462   1.739  0.00  0.00    -0.366 N 
ATOM     26  H   UNL d   1       6.509   4.051   1.441  0.00  0.00     0.159 HD
ATOM     27  H   UNL d   1       7.840   3.758   2.424  0.00  0.00     0.159 HD
ENDBRANCH  19  23
BRANCH  18  28
ATOM     28  O   UNL d   1       7.279   3.072  -1.422  0.00  0.00    -0.362 OA
ATOM     29  H   UNL d   1       7.855   3.300  -0.637  0.00  0.00     0.217 HD
ENDBRANCH  18  28
BRANCH  17  30
ATOM     30  N   UNL d   1       6.017   0.627  -2.877  0.00  0.00    -0.068 N 
ATOM     31  C   UNL d   1       5.173   0.293  -4.044  0.00  0.00     0.270 C 
ATOM     32  C   UNL d   1       7.349   1.080  -3.330  0.00  0.00     0.270 C 
ATOM     33  H   UNL d   1       6.130  -0.212  -2.296  0.00  0.00     0.279 HD
ENDBRANCH  17  30
BRANCH  13  34
ATOM     34  O   UNL d   1       5.170  -1.033  -0.896  0.00  0.00    -0.374 OA
ATOM     35  H   UNL d   1       5.375  -1.724  -0.251  0.00  0.00     0.211 HD
ENDBRANCH  13  34
BRANCH  12  36
ATOM     36  O   UNL d   1       3.246  -1.496   1.063  0.00  0.00    -0.361 OA
ATOM     37  H   UNL d   1       4.171  -1.875   1.039  0.00  0.00     0.217 HD
ENDBRANCH  12  36
BRANCH   2  38
ATOM     38  O   UNL d   1       1.724   2.957   1.425  0.00  0.00    -0.385 OA
ATOM     39  H   UNL d   1       1.248   3.596   1.972  0.00  0.00     0.211 HD
ENDBRANCH   2  38
BRANCH   7  40
ATOM     40  O   UNL d   1      -1.585  -1.347   1.718  0.00  0.00    -0.360 OA
ATOM     41  H   UNL d   1      -1.424  -1.522   2.656  0.00  0.00     0.217 HD
ENDBRANCH   7  40
TORSDOF 7
