REMARK  4 active torsions:
REMARK  status: ('A' for Active; 'I' for Inactive)
REMARK    1  A    between atoms: C_2  and  N_3 
REMARK    2  A    between atoms: N_3  and  C_22 
REMARK    3  A    between atoms: C_7  and  C_8 
REMARK    4  A    between atoms: C_7  and  C_14 
ROOT
ATOM      1  N   UNL d   1      -0.436  -1.753   2.575  0.00  0.00    -0.060 N 
ATOM      2  C   UNL d   1      -0.563  -0.544   3.431  0.00  0.00     0.242 C 
ATOM      3  C   UNL d   1      -0.515   0.613   2.402  0.00  0.00     0.065 C 
ATOM      4  C   UNL d   1       0.496   0.122   1.376  0.00  0.00    -0.036 C 
ATOM      5  C   UNL d   1       1.206   0.869   0.521  0.00  0.00    -0.011 C 
ATOM      6  C   UNL d   1       0.529  -1.386   1.516  0.00  0.00     0.216 C 
ATOM      7  C   UNL d   1       1.934  -1.840   1.918  0.00  0.00     0.045 C 
ENDROOT
BRANCH   5   8
ATOM      8  C   UNL d   1       1.140   2.349   0.599  0.00  0.00    -0.025 A 
ATOM      9  C   UNL d   1       2.274   3.082   0.943  0.00  0.00     0.012 A 
ATOM     10  C   UNL d   1       2.207   4.459   1.013  0.00  0.00     0.001 A 
ATOM     11  C   UNL d   1       1.017   5.111   0.743  0.00  0.00     0.000 A 
ATOM     12  C   UNL d   1      -0.111   4.388   0.401  0.00  0.00     0.001 A 
ATOM     13  C   UNL d   1      -0.054   3.011   0.322  0.00  0.00     0.012 A 
ENDBRANCH   5   8
BRANCH   5  14
ATOM     14  C   UNL d   1       2.058   0.217  -0.502  0.00  0.00    -0.025 A 
ATOM     15  C   UNL d   1       1.474  -0.494  -1.549  0.00  0.00     0.012 A 
ATOM     16  C   UNL d   1       2.272  -1.099  -2.499  0.00  0.00     0.001 A 
ATOM     17  C   UNL d   1       3.649  -1.000  -2.413  0.00  0.00     0.000 A 
ATOM     18  C   UNL d   1       4.234  -0.296  -1.376  0.00  0.00     0.001 A 
ATOM     19  C   UNL d   1       3.446   0.318  -0.424  0.00  0.00     0.012 A 
ENDBRANCH   5  14
BRANCH   1  20
ATOM     20  C   UNL d   1       0.072  -2.884   3.362  0.00  0.00     0.234 C 
ATOM     21  C   UNL d   1       0.090  -4.143   2.494  0.00  0.00     0.035 C 
ENDBRANCH   1  20
BRANCH   1  22
ATOM     22  C   UNL d   1      -1.735  -2.091   1.978  0.00  0.00     0.234 C 
ATOM     23  C   UNL d   1      -2.724  -2.464   3.084  0.00  0.00     0.035 C 
ENDBRANCH   1  22
TORSDOF 4
