REMARK  5 active torsions:
REMARK  status: ('A' for Active; 'I' for Inactive)
REMARK    1  A    between atoms: C_2  and  N_3 
REMARK    2  A    between atoms: N_3  and  C_4 
REMARK       I    between atoms: N_3  and  C_6 
REMARK    3  A    between atoms: C_6  and  C_8 
REMARK    4  A    between atoms: C_11  and  O_16 
REMARK    5  A    between atoms: C_12  and  O_14 
ROOT
ATOM      1  C   UNL d   1      -0.979   2.546  -0.272  0.00  0.00     0.035 A 
ATOM      2  C   UNL d   1      -0.984   1.339   0.432  0.00  0.00     0.020 A 
ATOM      3  C   UNL d   1       0.019   0.417   0.226  0.00  0.00     0.040 A 
ATOM      4  C   UNL d   1       1.030   0.680  -0.689  0.00  0.00     0.099 A 
ATOM      5  C   UNL d   1       1.038   1.880  -1.398  0.00  0.00     0.102 A 
ATOM      6  C   UNL d   1       0.039   2.811  -1.192  0.00  0.00     0.056 A 
ENDROOT
BRANCH   1   7
ATOM      7  C   UNL d   1      -2.050   3.537  -0.048  0.00  0.00     0.253 C 
ATOM      8  N   UNL d   1      -3.337   3.140  -0.007  0.00  0.00    -0.349 N 
ATOM      9  O   UNL d   1      -1.770   4.711   0.099  0.00  0.00    -0.267 OA
BRANCH   8  10
ATOM     10  C   UNL d   1      -3.666   1.714  -0.057  0.00  0.00     0.121 C 
ATOM     11  C   UNL d   1      -3.898   1.194   1.364  0.00  0.00     0.026 C 
ENDBRANCH   8  10
BRANCH   8  12
ATOM     12  C   UNL d   1      -4.408   4.136   0.088  0.00  0.00     0.121 C 
ATOM     13  C   UNL d   1      -4.847   4.548  -1.318  0.00  0.00     0.026 C 
ENDBRANCH   8  12
ENDBRANCH   1   7
BRANCH   5  14
ATOM     14  O   UNL d   1       2.031   2.135  -2.292  0.00  0.00    -0.353 OA
ATOM     15  C   UNL d   1       1.976   3.384  -2.984  0.00  0.00     0.210 C 
ENDBRANCH   5  14
BRANCH   4  16
ATOM     16  O   UNL d   1       2.014  -0.234  -0.892  0.00  0.00    -0.358 OA
ATOM     17  H   UNL d   1       1.817  -0.874  -1.591  0.00  0.00     0.217 HD
ENDBRANCH   4  16
TORSDOF 5
