REMARK  3 active torsions:
REMARK  status: ('A' for Active; 'I' for Inactive)
REMARK    1  A    between atoms: C_2  and  C_3 
REMARK    2  A    between atoms: C_8  and  S_14 
REMARK    3  A    between atoms: S_14  and  N_17 
ROOT
ATOM      1  C   UNL d   1       1.253   1.701  -0.001  0.00  0.00     0.184 C 
ATOM      2  N   UNL d   1       1.107   2.974   0.716  0.00  0.00    -0.368 N 
ATOM      3  C   UNL d   1      -0.025   3.745   0.475  0.00  0.00     0.047 A 
ATOM      4  C   UNL d   1      -0.008   5.124   0.580  0.00  0.00     0.055 A 
ATOM      5  C   UNL d   1      -1.160   5.844   0.323  0.00  0.00     0.059 A 
ATOM      6  C   UNL d   1      -2.332   5.194  -0.038  0.00  0.00     0.102 A 
ATOM      7  C   UNL d   1      -2.365   3.820  -0.146  0.00  0.00     0.046 A 
ATOM      8  C   UNL d   1      -1.212   3.083   0.113  0.00  0.00     0.060 A 
ATOM      9  C   UNL d   1      -1.195   1.612   0.017  0.00  0.00     0.255 C 
ATOM     10  O   UNL d   1      -2.237   0.988  -0.049  0.00  0.00    -0.268 OA
ATOM     11  N   UNL d   1      -0.011   0.966   0.007  0.00  0.00    -0.336 N 
ATOM     12 CL   UNL d   1      -1.142   7.575   0.455  0.00  0.00    -0.083 Cl
ATOM     13  H   UNL d   1       1.784   3.270   1.344  0.00  0.00     0.161 HD
ATOM     14  H   UNL d   1       0.002  -0.004   0.002  0.00  0.00     0.164 HD
ENDROOT
BRANCH   6  15
ATOM     15  S   UNL d   1      -3.787   6.133  -0.364  0.00  0.00     0.258 S 
ATOM     16  O   UNL d   1      -3.409   7.175  -1.252  0.00  0.00    -0.201 OA
ATOM     17  O   UNL d   1      -4.811   5.198  -0.678  0.00  0.00    -0.201 OA
BRANCH  15  18
ATOM     18  N   UNL d   1      -4.230   6.859   1.057  0.00  0.00    -0.324 N 
ATOM     19  H   UNL d   1      -3.702   6.717   1.859  0.00  0.00     0.169 HD
ATOM     20  H   UNL d   1      -5.016   7.425   1.088  0.00  0.00     0.169 HD
ENDBRANCH  15  18
ENDBRANCH   6  15
BRANCH   1  21
ATOM     21  C   UNL d   1       1.669   1.979  -1.447  0.00  0.00     0.042 C 
ATOM     22  C   UNL d   1       1.842   0.654  -2.191  0.00  0.00     0.009 C 
ENDBRANCH   1  21
TORSDOF 3
