REMARK  4 active torsions:
REMARK  status: ('A' for Active; 'I' for Inactive)
REMARK    1  A    between atoms: C_2  and  C_3 
REMARK    2  A    between atoms: C_17  and  C_19 
REMARK    3  A    between atoms: C_19  and  O_21 
REMARK    4  A    between atoms: O_21  and  C_22 
ROOT
ATOM      1  C   UNL d   1      -3.803   1.916  -0.119  0.00  0.00     0.014 C 
ATOM      2  C   UNL d   1      -4.906   0.951   0.294  0.00  0.00     0.018 C 
ATOM      3  C   UNL d   1      -6.101   1.687   0.894  0.00  0.00     0.029 C 
ATOM      4  C   UNL d   1      -6.179   3.146   0.466  0.00  0.00     0.236 C 
ATOM      5  C   UNL d   1      -3.781   3.097   0.853  0.00  0.00     0.251 C 
ATOM      6  C   UNL d   1      -2.565   3.905   0.486  0.00  0.00     0.057 A 
ATOM      7  C   UNL d   1      -2.495   5.243   0.472  0.00  0.00    -0.019 A 
ATOM      8  C   UNL d   1      -1.151   5.577   0.085  0.00  0.00    -0.001 A 
ATOM      9  C   UNL d   1      -0.491   6.799  -0.077  0.00  0.00     0.014 A 
ATOM     10  C   UNL d   1       0.820   6.759  -0.474  0.00  0.00     0.001 A 
ATOM     11  C   UNL d   1       1.473   5.562  -0.713  0.00  0.00     0.002 A 
ATOM     12  C   UNL d   1       0.849   4.337  -0.561  0.00  0.00     0.031 A 
ATOM     13  C   UNL d   1      -0.480   4.334  -0.143  0.00  0.00     0.051 A 
ATOM     14  N   UNL d   1      -1.367   3.334   0.104  0.00  0.00    -0.307 N 
ATOM     15  C   UNL d   1      -1.300   1.930   0.019  0.00  0.00     0.112 C 
ATOM     16  C   UNL d   1      -2.452   1.242  -0.081  0.00  0.00     0.022 C 
ATOM     17  C   UNL d   1      -3.727   6.039   0.829  0.00  0.00     0.069 C 
ATOM     18  C   UNL d   1      -4.918   5.226   0.281  0.00  0.00     0.240 C 
ATOM     19  N   UNL d   1      -5.024   3.902   0.968  0.00  0.00    -0.060 N 
ATOM     20  H   UNL d   1      -5.179   4.086   1.966  0.00  0.00     0.280 HD
ENDROOT
BRANCH  15  21
ATOM     21  C   UNL d   1      -0.014   1.211   0.009  0.00  0.00     0.310 C 
ATOM     22  O   UNL d   1       0.012   0.017  -0.216  0.00  0.00    -0.258 OA
BRANCH  21  23
ATOM     23  O   UNL d   1       1.133   1.878   0.243  0.00  0.00    -0.317 OA
BRANCH  23  24
ATOM     24  C   UNL d   1       2.362   1.107   0.211  0.00  0.00     0.175 C 
ATOM     25  C   UNL d   1       3.550   2.028   0.497  0.00  0.00     0.034 C 
ENDBRANCH  23  24
ENDBRANCH  21  23
ENDBRANCH  15  21
BRANCH   1  26
ATOM     26  C   UNL d   1      -4.032   2.399  -1.554  0.00  0.00     0.011 C 
ATOM     27  C   UNL d   1      -4.003   1.202  -2.506  0.00  0.00     0.006 C 
ENDBRANCH   1  26
TORSDOF 4
