REMARK  14 active torsions:
REMARK  status: ('A' for Active; 'I' for Inactive)
REMARK    1  A    between atoms: C_2  and  C_3 
REMARK    2  A    between atoms: C_3  and  O_57 
REMARK    3  A    between atoms: C_5  and  O_29 
REMARK    4  A    between atoms: C_11  and  O_12 
REMARK    5  A    between atoms: C_20  and  O_21 
REMARK    6  A    between atoms: C_24  and  C_25 
REMARK    7  A    between atoms: C_25  and  O_27 
REMARK    8  A    between atoms: O_29  and  C_30 
REMARK    9  A    between atoms: C_32  and  N_62 
REMARK   10  A    between atoms: C_33  and  O_37 
REMARK   11  A    between atoms: O_37  and  C_38 
REMARK   12  A    between atoms: C_40  and  O_54 
REMARK   13  A    between atoms: C_41  and  O_45 
REMARK   14  A    between atoms: O_45  and  C_46 
ROOT
ATOM      1  C   UNL d   1       1.303   3.632   4.637  0.00  0.00     0.077 C 
ATOM      2  C   UNL d   1       0.029   4.179   3.982  0.00  0.00     0.076 C 
ATOM      3  C   UNL d   1      -0.603   3.063   3.153  0.00  0.00     0.163 C 
ATOM      4  C   UNL d   1      -0.752   1.810   3.977  0.00  0.00     0.012 A 
ATOM      5  C   UNL d   1      -0.062   1.606   5.148  0.00  0.00    -0.029 A 
ATOM      6  C   UNL d   1      -0.234   0.424   5.866  0.00  0.00     0.025 A 
ATOM      7  C   UNL d   1      -1.101  -0.557   5.413  0.00  0.00     0.032 A 
ATOM      8  C   UNL d   1      -1.814  -0.354   4.215  0.00  0.00     0.063 A 
ATOM      9  C   UNL d   1      -1.634   0.831   3.505  0.00  0.00     0.090 A 
ATOM     10  C   UNL d   1      -2.740  -1.396   3.729  0.00  0.00     0.199 C 
ATOM     11  O   UNL d   1      -3.542  -1.144   2.851  0.00  0.00    -0.286 OA
ATOM     12  C   UNL d   1      -2.681  -2.747   4.321  0.00  0.00     0.062 A 
ATOM     13  C   UNL d   1      -1.968  -2.954   5.519  0.00  0.00     0.032 A 
ATOM     14  C   UNL d   1      -1.912  -4.225   6.077  0.00  0.00     0.017 A 
ATOM     15  C   UNL d   1      -2.555  -5.284   5.454  0.00  0.00     0.004 A 
ATOM     16  C   UNL d   1      -3.254  -5.088   4.281  0.00  0.00     0.037 A 
ATOM     17  C   UNL d   1      -3.324  -3.822   3.705  0.00  0.00     0.080 A 
ATOM     18  C   UNL d   1      -1.286  -1.815   6.170  0.00  0.00     0.194 C 
ATOM     19  O   UNL d   1      -0.882  -1.910   7.312  0.00  0.00    -0.287 OA
ATOM     20  C   UNL d   1       0.896   2.625   5.711  0.00  0.00     0.153 C 
ENDROOT
BRANCH   3  21
ATOM     21  O   UNL d   1       0.227   2.788   2.023  0.00  0.00    -0.351 OA
BRANCH  21  22
ATOM     22  C   UNL d   1      -0.166   3.475   0.833  0.00  0.00     0.263 C 
ATOM     23  O   UNL d   1       0.125   4.867   0.967  0.00  0.00    -0.354 OA
ATOM     24  C   UNL d   1      -0.252   5.655  -0.164  0.00  0.00     0.151 C 
ATOM     25  C   UNL d   1       0.516   5.174  -1.398  0.00  0.00     0.184 C 
ATOM     26  C   UNL d   1       0.080   7.124   0.103  0.00  0.00     0.042 C 
ATOM     27  C   UNL d   1       0.225   3.687  -1.624  0.00  0.00     0.223 C 
ATOM     28  C   UNL d   1       0.605   2.907  -0.362  0.00  0.00     0.096 C 
BRANCH  25  29
ATOM     29  O   UNL d   1       1.918   5.361  -1.192  0.00  0.00    -0.351 OA
BRANCH  29  30
ATOM     30  C   UNL d   1       2.614   5.852  -2.339  0.00  0.00     0.263 C 
ATOM     31  O   UNL d   1       2.244   7.212  -2.575  0.00  0.00    -0.354 OA
ATOM     32  C   UNL d   1       2.867   7.795  -3.721  0.00  0.00     0.152 C 
ATOM     33  C   UNL d   1       4.386   7.791  -3.532  0.00  0.00     0.182 C 
ATOM     34  C   UNL d   1       2.378   9.236  -3.890  0.00  0.00     0.042 C 
ATOM     35  C   UNL d   1       4.861   6.352  -3.304  0.00  0.00     0.154 C 
ATOM     36  C   UNL d   1       4.123   5.769  -2.095  0.00  0.00     0.095 C 
BRANCH  33  37
ATOM     37  O   UNL d   1       4.729   8.592  -2.400  0.00  0.00    -0.351 OA
BRANCH  37  38
ATOM     38  C   UNL d   1       5.945   9.328  -2.555  0.00  0.00     0.261 C 
ATOM     39  O   UNL d   1       5.742  10.387  -3.491  0.00  0.00    -0.349 OA
ATOM     40  C   UNL d   1       6.929  11.123  -3.806  0.00  0.00     0.190 C 
ATOM     41  C   UNL d   1       7.526  11.640  -2.514  0.00  0.00     0.155 C 
ATOM     42  C   UNL d   1       6.580  12.299  -4.720  0.00  0.00     0.048 C 
ATOM     43  C   UNL d   1       7.691  10.661  -1.370  0.00  0.00     0.086 C 
ATOM     44  O   UNL d   1       7.860  12.795  -2.400  0.00  0.00    -0.295 OA
ATOM     45  C   UNL d   1       6.367   9.904  -1.201  0.00  0.00     0.068 C 
ENDBRANCH  37  38
ENDBRANCH  33  37
BRANCH  35  46
ATOM     46  O   UNL d   1       6.267   6.346  -3.054  0.00  0.00    -0.393 OA
ATOM     47  H   UNL d   1       6.635   5.466  -2.894  0.00  0.00     0.210 HD
ENDBRANCH  35  46
ENDBRANCH  29  30
ENDBRANCH  25  29
BRANCH  27  48
ATOM     48  N   UNL d   1       1.044   3.206  -2.756  0.00  0.00    -0.072 N 
ATOM     49  C   UNL d   1       0.960   1.734  -2.851  0.00  0.00     0.269 C 
ATOM     50  C   UNL d   1       0.575   3.821  -4.016  0.00  0.00     0.269 C 
ATOM     51  H   UNL d   1       2.022   3.475  -2.598  0.00  0.00     0.279 HD
ENDBRANCH  27  48
ENDBRANCH  21  22
ENDBRANCH   3  21
BRANCH   1  52
ATOM     52  C   UNL d   1       2.088   4.779   5.276  0.00  0.00     0.034 C 
ATOM     53  C   UNL d   1       3.375   4.232   5.897  0.00  0.00     0.008 C 
ENDBRANCH   1  52
BRANCH   1  54
ATOM     54  O   UNL d   1       2.111   2.985   3.652  0.00  0.00    -0.389 OA
ATOM     55  H   UNL d   1       2.390   3.565   2.930  0.00  0.00     0.210 HD
ENDBRANCH   1  54
BRANCH   9  56
ATOM     56  O   UNL d   1      -2.316   1.036   2.351  0.00  0.00    -0.359 OA
ATOM     57  H   UNL d   1      -1.889   0.659   1.569  0.00  0.00     0.217 HD
ENDBRANCH   9  56
BRANCH  20  58
ATOM     58  C   UNL d   1       0.232   3.355   6.850  0.00  0.00     0.270 C 
ATOM     59  O   UNL d   1      -0.356   4.391   6.643  0.00  0.00    -0.264 OA
BRANCH  58  60
ATOM     60  O   UNL d   1       0.293   2.856   8.094  0.00  0.00    -0.326 OA
ATOM     61  C   UNL d   1      -0.369   3.612   9.142  0.00  0.00     0.213 C 
ENDBRANCH  58  60
ENDBRANCH  20  58
BRANCH  17  62
ATOM     62  O   UNL d   1      -4.012  -3.635   2.552  0.00  0.00    -0.360 OA
ATOM     63  H   UNL d   1      -3.480  -3.752   1.753  0.00  0.00     0.217 HD
ENDBRANCH  17  62
TORSDOF 14
