REMARK  6 active torsions:
REMARK  status: ('A' for Active; 'I' for Inactive)
REMARK    1  A    between atoms: C_2  and  O_12 
REMARK    2  A    between atoms: C_3  and  O_11 
REMARK    3  A    between atoms: C_4  and  O_10 
REMARK    4  A    between atoms: C_5  and  C_7 
REMARK    5  A    between atoms: C_5  and  O_9 
REMARK    6  A    between atoms: C_7  and  O_8 
ROOT
ATOM      1  C   UNL d   1       0.808  -0.502   1.204  0.00  0.00     0.206 C 
ATOM      2  C   UNL d   1       0.002  -0.004   0.002  0.00  0.00     0.173 C 
ATOM      3  C   UNL d   1      -0.019   1.528   0.010  0.00  0.00     0.183 C 
ATOM      4  C   UNL d   1       1.422   2.047  -0.001  0.00  0.00     0.213 C 
ATOM      5  C   UNL d   1       2.174   1.469   1.202  0.00  0.00     0.212 C 
ATOM      6  O   UNL d   1       2.128   0.042   1.149  0.00  0.00    -0.349 OA
ENDROOT
BRANCH   5   7
ATOM      7  C   UNL d   1       3.631   1.935   1.165  0.00  0.00     0.235 C 
BRANCH   7   8
ATOM      8  O   UNL d   1       4.332   1.395   2.287  0.00  0.00    -0.395 OA
ATOM      9  H   UNL d   1       5.264   1.650   2.328  0.00  0.00     0.209 HD
ENDBRANCH   7   8
ENDBRANCH   5   7
BRANCH   5  10
ATOM     10  O   UNL d   1       1.559   1.921   2.410  0.00  0.00    -0.362 OA
ATOM     11  H   UNL d   1       1.984   1.593   3.214  0.00  0.00     0.213 HD
ENDBRANCH   5  10
BRANCH   4  12
ATOM     12  O   UNL d   1       2.068   1.638  -1.208  0.00  0.00    -0.387 OA
ATOM     13  H   UNL d   1       1.641   1.965  -2.012  0.00  0.00     0.210 HD
ENDBRANCH   4  12
BRANCH   3  14
ATOM     14  O   UNL d   1      -0.707   2.003  -1.148  0.00  0.00    -0.390 OA
ATOM     15  H   UNL d   1      -1.625   1.706  -1.210  0.00  0.00     0.210 HD
ENDBRANCH   3  14
BRANCH   2  16
ATOM     16  O   UNL d   1      -1.335  -0.500   0.085  0.00  0.00    -0.391 OA
ATOM     17  H   UNL d   1      -1.398  -1.465   0.085  0.00  0.00     0.210 HD
ENDBRANCH   2  16
TORSDOF 6
