REMARK  5 active torsions:
REMARK  status: ('A' for Active; 'I' for Inactive)
REMARK    1  A    between atoms: C_2  and  C_3 
REMARK    2  A    between atoms: C_3  and  C_4 
REMARK    3  A    between atoms: C_4  and  C_6 
REMARK    4  A    between atoms: C_6  and  C_16 
REMARK    5  A    between atoms: C_10  and  S_15 
ROOT
ATOM      1  C   UNL d   1      -2.160   1.036   1.287  0.00  0.00     0.125 A 
ATOM      2  C   UNL d   1      -2.873   1.526   0.040  0.00  0.00     0.242 A 
ATOM      3  O   UNL d   1      -2.985   2.708  -0.201  0.00  0.00    -0.272 OA
ATOM      4  N   UNL d   1      -3.378   0.587  -0.791  0.00  0.00    -0.306 N 
ATOM      5  C   UNL d   1      -3.252  -0.743  -0.520  0.00  0.00     0.146 A 
ATOM      6  N   UNL d   1      -2.648  -1.238   0.539  0.00  0.00    -0.306 N 
ATOM      7  HN  UNL d   1      -2.607  -2.251   0.650  1.00  0.00     0.171 HD
ATOM      8  C   UNL d   1      -2.089  -0.468   1.472  0.00  0.00     0.242 A 
ATOM      9  O   UNL d   1      -1.538  -0.955   2.439  0.00  0.00    -0.272 OA
ATOM     10  H   UNL d   1      -3.840   0.866  -1.598  0.00  0.00     0.171 HD
ENDROOT
BRANCH   1  11
ATOM     11  C   UNL d   1      -2.872   1.628   2.505  0.00  0.00     0.009 C 
ATOM     12  C   UNL d   1      -4.346   1.220   2.482  0.00  0.00     0.011 C 
BRANCH  11  13
ATOM     13  C   UNL d   1      -2.764   3.153   2.467  0.00  0.00     0.005 C 
BRANCH  13  14
ATOM     14  C   UNL d   1      -3.365   3.739   3.746  0.00  0.00    -0.004 C 
ATOM     15  C   UNL d   1      -3.257   5.265   3.708  0.00  0.00     0.005 C 
ENDBRANCH  13  14
ENDBRANCH  11  13
ENDBRANCH   1  11
BRANCH   1  16
ATOM     16  C   UNL d   1      -0.731   1.581   1.263  0.00  0.00     0.025 C 
ATOM     17  C   UNL d   1      -0.012   1.073   0.012  0.00  0.00     0.007 C 
ENDBRANCH   1  16
BRANCH   5  18
ATOM     18  S   UNL d   1      -3.928  -1.849  -1.638  0.00  0.00    -0.107 SA
ATOM     19  H   UNL d   1      -3.592  -3.067  -1.011  0.00  0.00     0.110 HD
ENDBRANCH   5  18
TORSDOF 5
