REMARK  13 active torsions:
REMARK  status: ('A' for Active; 'I' for Inactive)
REMARK    1  A    between atoms: C_2  and  C_3 
REMARK    2  A    between atoms: C_4  and  O_53 
REMARK    3  A    between atoms: C_5  and  O_51 
REMARK    4  A    between atoms: C_11  and  O_48 
REMARK    5  A    between atoms: C_12  and  O_33 
REMARK    6  A    between atoms: C_14  and  O_20 
REMARK    7  A    between atoms: O_20  and  C_21 
REMARK    8  A    between atoms: C_23  and  O_30 
REMARK    9  A    between atoms: C_24  and  O_28 
REMARK   10  A    between atoms: O_33  and  C_34 
REMARK   11  A    between atoms: C_35  and  O_43 
REMARK   12  A    between atoms: C_36  and  N_58 
REMARK   13  A    between atoms: O_43  and  C_44 
ROOT
ATOM      1  C   UNL d   1       3.527  -4.448  -3.248  0.00  0.00     0.168 C 
ATOM      2  C   UNL d   1       3.906  -5.297  -2.022  0.00  0.00     0.107 C 
ATOM      3  C   UNL d   1       4.264  -4.333  -0.899  0.00  0.00     0.165 C 
ATOM      4  C   UNL d   1       5.100  -4.914   0.229  0.00  0.00     0.083 C 
ATOM      5  C   UNL d   1       5.678  -3.768   1.027  0.00  0.00     0.137 C 
ATOM      6  O   UNL d   1       6.889  -3.665   1.079  0.00  0.00    -0.297 OA
ATOM      7  C   UNL d   1       4.839  -2.749   1.751  0.00  0.00     0.054 C 
ATOM      8  C   UNL d   1       3.579  -2.410   0.973  0.00  0.00     0.051 C 
ATOM      9  C   UNL d   1       3.073  -0.987   1.192  0.00  0.00     0.081 C 
ATOM     10  C   UNL d   1       2.588  -0.421  -0.138  0.00  0.00     0.165 C 
ATOM     11  C   UNL d   1       1.206  -0.862  -0.589  0.00  0.00     0.043 C 
ATOM     12  C   UNL d   1       0.998  -0.429  -2.038  0.00  0.00     0.144 C 
ATOM     13  C   UNL d   1       1.184  -1.476  -3.109  0.00  0.00     0.111 C 
ATOM     14  C   UNL d   1       2.412  -2.328  -2.963  0.00  0.00     0.265 C 
ATOM     15  O   UNL d   1       3.491  -1.781  -2.856  0.00  0.00    -0.265 OA
ATOM     16  O   UNL d   1       2.343  -3.662  -2.973  0.00  0.00    -0.312 OA
ATOM     17  C   UNL d   1      -0.065  -2.338  -3.326  0.00  0.00     0.023 C 
ATOM     18  C   UNL d   1       0.915  -2.339  -0.382  0.00  0.00     0.015 C 
ATOM     19  C   UNL d   1       1.977  -0.950   2.255  0.00  0.00     0.049 C 
ATOM     20  C   UNL d   1       4.478  -3.273   3.141  0.00  0.00     0.018 C 
ATOM     21  C   UNL d   1       4.301  -5.840   1.133  0.00  0.00     0.020 C 
ATOM     22  C   UNL d   1       2.687  -6.140  -1.644  0.00  0.00     0.051 C 
ENDROOT
BRANCH  10  23
ATOM     23  O   UNL d   1       2.608   1.014  -0.045  0.00  0.00    -0.350 OA
BRANCH  23  24
ATOM     24  C   UNL d   1       3.750   1.620  -0.654  0.00  0.00     0.292 C 
ATOM     25  O   UNL d   1       3.664   1.480  -2.073  0.00  0.00    -0.354 OA
ATOM     26  C   UNL d   1       4.774   2.033  -2.783  0.00  0.00     0.122 C 
ATOM     27  C   UNL d   1       4.859   3.536  -2.504  0.00  0.00     0.067 C 
ATOM     28  C   UNL d   1       4.588   1.801  -4.283  0.00  0.00     0.040 C 
ATOM     29  C   UNL d   1       4.986   3.761  -0.994  0.00  0.00     0.223 C 
ATOM     30  C   UNL d   1       3.794   3.106  -0.290  0.00  0.00     0.217 C 
BRANCH  29  31
ATOM     31  N   UNL d   1       4.970   5.214  -0.722  0.00  0.00    -0.072 N 
ATOM     32  C   UNL d   1       5.061   5.455   0.734  0.00  0.00     0.269 C 
ATOM     33  C   UNL d   1       6.098   5.870  -1.414  0.00  0.00     0.269 C 
ATOM     34  H   UNL d   1       4.089   5.609  -1.071  0.00  0.00     0.279 HD
ENDBRANCH  29  31
BRANCH  30  35
ATOM     35  O   UNL d   1       2.564   3.747  -0.719  0.00  0.00    -0.309 OA
BRANCH  35  36
ATOM     36  C   UNL d   1       1.582   3.851   0.190  0.00  0.00     0.255 C 
ATOM     37  O   UNL d   1       1.730   3.387   1.296  0.00  0.00    -0.266 OA
ATOM     38  C   UNL d   1       0.293   4.545  -0.170  0.00  0.00     0.126 C 
ENDBRANCH  35  36
ENDBRANCH  30  35
ENDBRANCH  23  24
ENDBRANCH  10  23
BRANCH   9  39
ATOM     39  O   UNL d   1       4.165  -0.173   1.646  0.00  0.00    -0.388 OA
ATOM     40  H   UNL d   1       4.543  -0.457   2.490  0.00  0.00     0.210 HD
ENDBRANCH   9  39
BRANCH  12  41
ATOM     41  O   UNL d   1      -0.310   0.160  -2.156  0.00  0.00    -0.355 OA
BRANCH  41  42
ATOM     42  C   UNL d   1      -1.355  -0.623  -1.575  0.00  0.00     0.263 C 
ATOM     43  O   UNL d   1      -1.419  -0.365  -0.171  0.00  0.00    -0.354 OA
ATOM     44  C   UNL d   1      -2.419  -1.120   0.516  0.00  0.00     0.152 C 
ATOM     45  C   UNL d   1      -3.798  -0.769  -0.047  0.00  0.00     0.181 C 
ATOM     46  C   UNL d   1      -2.377  -0.784   2.008  0.00  0.00     0.042 C 
ATOM     47  C   UNL d   1      -3.814  -1.051  -1.553  0.00  0.00     0.089 C 
ATOM     48  C   UNL d   1      -2.692  -0.252  -2.222  0.00  0.00     0.101 C 
ATOM     49  C   UNL d   1      -5.162  -0.629  -2.139  0.00  0.00     0.049 C 
BRANCH  45  50
ATOM     50  O   UNL d   1      -4.069   0.616   0.182  0.00  0.00    -0.390 OA
ATOM     51  H   UNL d   1      -4.075   0.866   1.116  0.00  0.00     0.210 HD
ENDBRANCH  45  50
BRANCH  47  52
ATOM     52  O   UNL d   1      -3.607  -2.447  -1.779  0.00  0.00    -0.383 OA
ATOM     53  C   UNL d   1      -3.590  -2.815  -3.160  0.00  0.00     0.202 C 
ENDBRANCH  47  52
ENDBRANCH  41  42
ENDBRANCH  12  41
BRANCH   3  54
ATOM     54  O   UNL d   1       5.037  -3.263  -1.490  0.00  0.00    -0.392 OA
ATOM     55  H   UNL d   1       5.856  -3.557  -1.912  0.00  0.00     0.210 HD
ENDBRANCH   3  54
BRANCH   1  56
ATOM     56  C   UNL d   1       3.260  -5.375  -4.431  0.00  0.00     0.031 C 
ATOM     57  C   UNL d   1       3.004  -4.539  -5.686  0.00  0.00     0.007 C 
ENDBRANCH   1  56
BRANCH   2  58
ATOM     58  O   UNL d   1       5.004  -6.143  -2.349  0.00  0.00    -0.385 OA
ATOM     59  H   UNL d   1       4.818  -6.771  -3.059  0.00  0.00     0.210 HD
ENDBRANCH   2  58
TORSDOF 13
