REMARK  4 active torsions:
REMARK  status: ('A' for Active; 'I' for Inactive)
REMARK    1  A    between atoms: C_3  and  C_4 
REMARK    2  A    between atoms: C_3  and  N_20 
REMARK    3  A    between atoms: C_4  and  C_5 
REMARK    4  A    between atoms: C_5  and  N_6 
ROOT
ATOM      1  N   UNL d   1       2.366   3.883  -0.003  0.00  0.00    -0.345 N 
ATOM      2  C   UNL d   1       1.165   3.166   0.007  0.00  0.00     0.052 A 
ATOM      3  C   UNL d   1       1.179   1.780   0.000  0.00  0.00     0.031 A 
ATOM      4  C   UNL d   1      -0.013   1.076   0.008  0.00  0.00     0.002 A 
ATOM      5  C   UNL d   1      -1.221   1.746   0.017  0.00  0.00     0.002 A 
ATOM      6  C   UNL d   1      -1.247   3.131   0.031  0.00  0.00     0.021 A 
ATOM      7  C   UNL d   1      -0.059   3.838   0.023  0.00  0.00     0.032 A 
ATOM      8  S   UNL d   1      -0.060   5.604   0.034  0.00  0.00    -0.086 SA
ATOM      9  C   UNL d   1       1.451   5.986  -0.796  0.00  0.00     0.032 A 
ATOM     10  C   UNL d   1       2.508   5.075  -0.722  0.00  0.00     0.052 A 
ATOM     11  C   UNL d   1       3.700   5.363  -1.369  0.00  0.00     0.031 A 
ATOM     12  C   UNL d   1       3.833   6.543  -2.080  0.00  0.00     0.002 A 
ATOM     13  C   UNL d   1       2.784   7.440  -2.150  0.00  0.00     0.002 A 
ATOM     14  C   UNL d   1       1.589   7.162  -1.507  0.00  0.00     0.021 A 
ENDROOT
BRANCH   1  15
ATOM     15  C   UNL d   1       3.507   3.373   0.762  0.00  0.00     0.131 C 
BRANCH  15  16
ATOM     16  C   UNL d   1       4.342   2.447  -0.124  0.00  0.00     0.048 C 
BRANCH  16  17
ATOM     17  C   UNL d   1       5.533   1.914   0.675  0.00  0.00     0.235 C 
BRANCH  17  18
ATOM     18  N   UNL d   1       6.317   1.005  -0.188  0.00  0.00    -0.079 N 
ATOM     19  C   UNL d   1       6.958   1.771  -1.278  0.00  0.00     0.269 C 
ATOM     20  C   UNL d   1       7.346   0.310   0.614  0.00  0.00     0.269 C 
ATOM     21  H   UNL d   1       5.686   0.307  -0.598  0.00  0.00     0.278 HD
ENDBRANCH  17  18
ENDBRANCH  16  17
ENDBRANCH  15  16
ENDBRANCH   1  15
TORSDOF 4
