REMARK  3 active torsions:
REMARK  status: ('A' for Active; 'I' for Inactive)
REMARK    1  A    between atoms: C_4  and  C_7 
REMARK    2  A    between atoms: C_7  and  C_8 
REMARK    3  A    between atoms: C_7  and  O_10 
ROOT
ATOM      1  C   UNL d   1       1.208  -0.679  -0.014  0.00  0.00     0.000 A 
ATOM      2  C   UNL d   1       0.002  -0.004   0.002  0.00  0.00     0.001 A 
ATOM      3  C   UNL d   1      -0.017   1.378   0.010  0.00  0.00     0.010 A 
ATOM      4  C   UNL d   1       1.171   2.086   0.002  0.00  0.00    -0.019 A 
ATOM      5  C   UNL d   1       2.377   1.411  -0.014  0.00  0.00     0.010 A 
ATOM      6  C   UNL d   1       2.396   0.029  -0.021  0.00  0.00     0.001 A 
ENDROOT
BRANCH   4   7
ATOM      7  C   UNL d   1       1.151   3.592   0.010  0.00  0.00     0.252 C 
BRANCH   7   8
ATOM      8  C   UNL d   1       1.403   4.091   1.409  0.00  0.00     0.207 C 
ATOM      9  O   UNL d   1       2.405   4.722   1.654  0.00  0.00    -0.646 OA
ATOM     10  O   UNL d   1       0.517   3.834   2.384  0.00  0.00    -0.646 OA
ENDBRANCH   7   8
BRANCH   7  11
ATOM     11  O   UNL d   1       2.168   4.087  -0.863  0.00  0.00    -0.380 OA
ATOM     12  H   UNL d   1       3.063   3.813  -0.620  0.00  0.00     0.211 HD
ENDBRANCH   7  11
ENDBRANCH   4   7
TORSDOF 3
