REMARK  9 active torsions:
REMARK  status: ('A' for Active; 'I' for Inactive)
REMARK    1  A    between atoms: C_3  and  O_22 
REMARK    2  A    between atoms: C_4  and  C_13 
REMARK    3  A    between atoms: C_6  and  O_7 
REMARK    4  A    between atoms: O_7  and  C_8 
REMARK    5  A    between atoms: C_8  and  C_9 
REMARK       I    between atoms: C_13  and  N_15 
REMARK    6  A    between atoms: N_15  and  C_16 
REMARK    7  A    between atoms: C_16  and  C_17 
REMARK    8  A    between atoms: O_22  and  C_23 
REMARK    9  A    between atoms: C_23  and  C_24 
ROOT
ATOM      1  C   UNL d   1      -7.885   2.206   5.481  0.00  0.00     0.039 A 
ATOM      2  C   UNL d   1      -8.638   1.510   4.556  0.00  0.00     0.040 A 
ATOM      3  C   UNL d   1      -8.089   1.160   3.332  0.00  0.00     0.085 A 
ATOM      4  C   UNL d   1      -6.763   1.506   3.039  0.00  0.00     0.068 A 
ATOM      5  C   UNL d   1      -6.009   2.210   3.980  0.00  0.00     0.056 A 
ATOM      6  C   UNL d   1      -6.572   2.557   5.194  0.00  0.00     0.070 A 
ENDROOT
BRANCH   4   7
ATOM      7  C   UNL d   1      -6.169   1.133   1.741  0.00  0.00     0.254 C 
ATOM      8  O   UNL d   1      -6.829   0.519   0.924  0.00  0.00    -0.268 OA
ATOM      9  N   UNL d   1      -4.896   1.471   1.461  0.00  0.00    -0.355 N 
ATOM     10  H   UNL d   1      -4.369   1.961   2.112  0.00  0.00     0.162 HD
BRANCH   9  11
ATOM     11  C   UNL d   1      -4.306   1.101   0.172  0.00  0.00     0.155 C 
BRANCH  11  12
ATOM     12  C   UNL d   1      -2.861   1.601   0.109  0.00  0.00     0.203 C 
ATOM     13  C   UNL d   1      -2.206   1.108  -1.183  0.00  0.00     0.035 C 
ATOM     14  C   UNL d   1      -0.755   1.594  -1.231  0.00  0.00     0.004 C 
ATOM     15  C   UNL d   1      -0.013   1.086   0.008  0.00  0.00     0.027 C 
ATOM     16  C   UNL d   1      -0.731   1.580   1.266  0.00  0.00     0.233 C 
ATOM     17  N   UNL d   1      -2.120   1.081   1.274  0.00  0.00    -0.069 N 
ATOM     18  H   UNL d   1      -2.110   0.054   1.237  0.00  0.00     0.277 HD
ATOM     19  H   UNL d   1      -2.585   1.388   2.136  0.00  0.00     0.277 HD
ENDBRANCH  11  12
ENDBRANCH   9  11
ENDBRANCH   4   7
BRANCH   3  20
ATOM     20  O   UNL d   1      -8.833   0.480   2.422  0.00  0.00    -0.341 OA
BRANCH  20  21
ATOM     21  C   UNL d   1     -10.176   0.162   2.789  0.00  0.00     0.293 C 
BRANCH  21  22
ATOM     22  C   UNL d   1     -10.851  -0.598   1.646  0.00  0.00     0.408 C 
ATOM     23  F   UNL d   1     -10.145  -1.779   1.391  0.00  0.00    -0.169 F 
ATOM     24  F   UNL d   1     -12.167  -0.910   2.006  0.00  0.00    -0.169 F 
ATOM     25  F   UNL d   1     -10.858   0.198   0.496  0.00  0.00    -0.169 F 
ENDBRANCH  21  22
ENDBRANCH  20  21
ENDBRANCH   3  20
BRANCH   6  26
ATOM     26  O   UNL d   1      -5.838   3.243   6.111  0.00  0.00    -0.342 OA
BRANCH  26  27
ATOM     27  C   UNL d   1      -6.482   3.569   7.345  0.00  0.00     0.293 C 
BRANCH  27  28
ATOM     28  C   UNL d   1      -5.507   4.334   8.241  0.00  0.00     0.408 C 
ATOM     29  F   UNL d   1      -5.108   5.511   7.599  0.00  0.00    -0.169 F 
ATOM     30  F   UNL d   1      -6.137   4.653   9.449  0.00  0.00    -0.169 F 
ATOM     31  F   UNL d   1      -4.385   3.539   8.496  0.00  0.00    -0.169 F 
ENDBRANCH  27  28
ENDBRANCH  26  27
ENDBRANCH   6  26
TORSDOF 9
