REMARK  4 active torsions:
REMARK  status: ('A' for Active; 'I' for Inactive)
REMARK    1  A    between atoms: N_9  and  C1*_10 
REMARK    2  A    between atoms: C3*_12  and  O3*_17 
REMARK    3  A    between atoms: C4*_13  and  C5*_15 
REMARK    4  A    between atoms: C5*_15  and  O5*_16 
ROOT
ATOM      1  C   UNL d   1       1.467   2.479  -3.417  0.00  0.00     0.146 A 
ATOM      2  C   UNL d   1       1.825   2.717  -4.697  0.00  0.00     0.199 A 
ATOM      3  C   UNL d   1       1.228   3.800  -5.389  0.00  0.00     0.289 A 
ATOM      4  O   UNL d   1       1.538   4.037  -6.543  0.00  0.00    -0.265 OA
ATOM      5  N   UNL d   1       0.313   4.564  -4.760  0.00  0.00    -0.273 N 
ATOM      6  H   UNL d   1      -0.113   5.330  -5.242  0.00  0.00     0.173 HD
ATOM      7  C   UNL d   1      -0.029   4.302  -3.485  0.00  0.00     0.331 A 
ATOM      8  O   UNL d   1      -0.855   5.001  -2.930  0.00  0.00    -0.246 OA
ATOM      9  N   UNL d   1       0.530   3.277  -2.815  0.00  0.00    -0.279 N 
ATOM     10  F   UNL d   1       2.744   1.937  -5.308  0.00  0.00    -0.199 F 
ENDROOT
BRANCH   9  11
ATOM     11  C1* UNL d   1       0.137   3.017  -1.428  0.00  0.00     0.235 C 
ATOM     12  O4* UNL d   1       1.301   2.967  -0.594  0.00  0.00    -0.356 OA
ATOM     13  C4* UNL d   1       1.425   1.664  -0.003  0.00  0.00     0.176 C 
ATOM     14  C3* UNL d   1      -0.013   1.086   0.008  0.00  0.00     0.153 C 
ATOM     15  C2* UNL d   1      -0.565   1.645  -1.331  0.00  0.00     0.088 C 
BRANCH  13  16
ATOM     16  C5* UNL d   1       1.962   1.778   1.425  0.00  0.00     0.198 C 
BRANCH  16  17
ATOM     17  O5* UNL d   1       3.326   2.202   1.389  0.00  0.00    -0.398 OA
ATOM     18  H5* UNL d   1       3.732   2.296   2.261  0.00  0.00     0.209 HD
ENDBRANCH  16  17
ENDBRANCH  13  16
BRANCH  14  19
ATOM     19  O3* UNL d   1      -0.759   1.581   1.121  0.00  0.00    -0.393 OA
ATOM     20  H3* UNL d   1      -1.680   1.289   1.139  0.00  0.00     0.210 HD
ENDBRANCH  14  19
ENDBRANCH   9  11
TORSDOF 4
