REMARK  3 active torsions:
REMARK  status: ('A' for Active; 'I' for Inactive)
REMARK    1  A    between atoms: C_2  and  C_4 
REMARK    2  A    between atoms: C_4  and  O_25 
REMARK    3  A    between atoms: O_25  and  C_26 
ROOT
ATOM      1  C   UNL d   1       1.395   2.159   0.033  0.00  0.00     0.138 C 
ATOM      2  C   UNL d   1       2.218   2.395   1.321  0.00  0.00     0.048 C 
ATOM      3  C   UNL d   1       3.659   1.950   1.010  0.00  0.00     0.009 C 
ATOM      4  C   UNL d   1       3.665   1.500  -0.476  0.00  0.00     0.005 C 
ATOM      5  C   UNL d   1       2.203   1.082  -0.716  0.00  0.00    -0.001 C 
ATOM      6  C   UNL d   1       1.847   1.002  -2.180  0.00  0.00     0.013 C 
ATOM      7  C   UNL d   1       2.193   2.276  -2.924  0.00  0.00     0.007 C 
ATOM      8  C   UNL d   1       3.702   2.512  -2.781  0.00  0.00     0.006 C 
ATOM      9  C   UNL d   1       4.019   2.737  -1.305  0.00  0.00     0.020 C 
ATOM     10  C   UNL d   1       5.479   3.054  -1.133  0.00  0.00     0.003 C 
ATOM     11  C   UNL d   1       6.178   3.667  -2.087  0.00  0.00     0.037 C 
ATOM     12  C   UNL d   1       5.551   4.055  -3.350  0.00  0.00    -0.025 C 
ATOM     13  C   UNL d   1       6.286   4.675  -4.304  0.00  0.00     0.059 C 
ATOM     14  C   UNL d   1       5.727   5.059  -5.533  0.00  0.00     0.149 C 
ATOM     15  O   UNL d   1       6.417   5.627  -6.356  0.00  0.00    -0.293 OA
ATOM     16  C   UNL d   1       4.282   4.769  -5.845  0.00  0.00     0.084 C 
ATOM     17  C   UNL d   1       3.842   3.524  -5.067  0.00  0.00     0.022 C 
ATOM     18  C   UNL d   1       4.090   3.762  -3.576  0.00  0.00    -0.010 C 
ATOM     19  C   UNL d   1       3.251   4.950  -3.102  0.00  0.00     0.021 C 
ATOM     20 CL   UNL d   1       7.859   4.010  -1.828  0.00  0.00    -0.084 Cl
ATOM     21  C   UNL d   1       1.955  -0.278  -0.061  0.00  0.00     0.019 C 
ENDROOT
BRANCH   1  22
ATOM     22  C   UNL d   1       0.017   1.650   0.369  0.00  0.00     0.158 C 
ATOM     23  C   UNL d   1      -1.088   1.736  -0.652  0.00  0.00     0.094 C 
ATOM     24  O   UNL d   1      -0.200   1.168   1.455  0.00  0.00    -0.295 OA
ENDBRANCH   1  22
BRANCH   1  25
ATOM     25  O   UNL d   1       1.311   3.375  -0.755  0.00  0.00    -0.302 OA
BRANCH  25  26
ATOM     26  C   UNL d   1       0.655   4.411  -0.209  0.00  0.00     0.256 C 
ATOM     27  O   UNL d   1       0.251   4.338   0.927  0.00  0.00    -0.266 OA
ATOM     28  C   UNL d   1       0.423   5.664  -1.013  0.00  0.00     0.126 C 
ENDBRANCH  25  26
ENDBRANCH   1  25
TORSDOF 3
