REMARK  11 active torsions:
REMARK  status: ('A' for Active; 'I' for Inactive)
REMARK    1  A    between atoms: C_2  and  N_27 
REMARK    2  A    between atoms: C_3  and  N_27 
REMARK    3  A    between atoms: C_5  and  C_6 
REMARK    4  A    between atoms: C_5  and  N_27 
REMARK    5  A    between atoms: C_7  and  C_8 
REMARK    6  A    between atoms: C_8  and  O_9 
REMARK    7  A    between atoms: O_9  and  C_10 
REMARK    8  A    between atoms: C_10  and  C_12 
REMARK    9  A    between atoms: C_12  and  C_13 
REMARK   10  A    between atoms: C_12  and  C_19 
REMARK   11  A    between atoms: C_12  and  O_25 
ROOT
ATOM      1  C   UNL d   1      -1.079  -0.462  -0.838  0.00  0.00     0.176 C 
ENDROOT
BRANCH   1   2
ATOM      2  C   UNL d   1      -1.267  -0.100   0.613  0.00  0.00     0.299 C 
ATOM      3  O   UNL d   1      -0.844  -0.831   1.477  0.00  0.00    -0.261 OA
BRANCH   2   4
ATOM      4  O   UNL d   1      -1.905   1.033   0.945  0.00  0.00    -0.307 OA
BRANCH   4   5
ATOM      5  C   UNL d   1      -2.051   1.317   2.361  0.00  0.00     0.272 C 
BRANCH   5   6
ATOM      6  C   UNL d   1      -2.770   2.590   2.535  0.00  0.00    -0.078 C 
ATOM      7  C   UNL d   1      -3.343   3.605   2.674  0.00  0.00    -0.077 C 
BRANCH   7   8
ATOM      8  C   UNL d   1      -4.062   4.877   2.848  0.00  0.00     0.328 C 
BRANCH   8   9
ATOM      9  N   UNL d   1      -4.183   5.162   4.293  0.00  0.00    -0.062 N 
ATOM     10  H   UNL d   1      -3.260   5.063   4.731  0.00  0.00     0.280 HD
BRANCH   9  11
ATOM     11  C   UNL d   1      -4.666   6.544   4.497  0.00  0.00     0.231 C 
ATOM     12  C   UNL d   1      -4.569   6.886   5.986  0.00  0.00     0.034 C 
ENDBRANCH   9  11
BRANCH   9  13
ATOM     13  C   UNL d   1      -5.117   4.203   4.921  0.00  0.00     0.231 C 
ATOM     14  C   UNL d   1      -6.502   4.305   4.279  0.00  0.00     0.034 C 
ENDBRANCH   9  13
ENDBRANCH   8   9
ENDBRANCH   7   8
ENDBRANCH   5   6
ENDBRANCH   4   5
ENDBRANCH   2   4
ENDBRANCH   1   2
BRANCH   1  15
ATOM     15  C   UNL d   1      -0.924  -1.955  -0.968  0.00  0.00    -0.014 A 
ATOM     16  C   UNL d   1      -1.886  -2.694  -1.630  0.00  0.00     0.011 A 
ATOM     17  C   UNL d   1      -1.745  -4.064  -1.749  0.00  0.00     0.001 A 
ATOM     18  C   UNL d   1      -0.640  -4.695  -1.207  0.00  0.00     0.000 A 
ATOM     19  C   UNL d   1       0.322  -3.955  -0.545  0.00  0.00     0.001 A 
ATOM     20  C   UNL d   1       0.182  -2.585  -0.430  0.00  0.00     0.011 A 
ENDBRANCH   1  15
BRANCH   1  21
ATOM     21  C   UNL d   1       0.176   0.230  -1.377  0.00  0.00     0.035 C 
ATOM     22  C   UNL d   1       0.038   1.743  -1.203  0.00  0.00     0.008 C 
ATOM     23  C   UNL d   1       1.292   2.434  -1.742  0.00  0.00     0.001 C 
ATOM     24  C   UNL d   1       1.459   2.105  -3.226  0.00  0.00     0.000 C 
ATOM     25  C   UNL d   1       1.596   0.591  -3.400  0.00  0.00     0.001 C 
ATOM     26  C   UNL d   1       0.342  -0.100  -2.861  0.00  0.00     0.008 C 
ENDBRANCH   1  21
BRANCH   1  27
ATOM     27  O   UNL d   1      -2.217  -0.034  -1.587  0.00  0.00    -0.374 OA
ATOM     28  H   UNL d   1      -3.050  -0.432  -1.300  0.00  0.00     0.211 HD
ENDBRANCH   1  27
TORSDOF 11
