REMARK  4 active torsions:
REMARK  status: ('A' for Active; 'I' for Inactive)
REMARK    1  A    between atoms: C_2  and  O_3 
REMARK    2  A    between atoms: O_3  and  C_4 
REMARK    3  A    between atoms: C_11  and  S_14 
REMARK    4  A    between atoms: S_14  and  N_17 
ROOT
ATOM      1  C   UNL d   1      -3.673   3.219   5.295  0.00  0.00     0.070 A 
ATOM      2  C   UNL d   1      -4.579   2.951   4.271  0.00  0.00     0.039 A 
ATOM      3  C   UNL d   1      -4.165   2.553   3.040  0.00  0.00     0.034 A 
ATOM      4  C   UNL d   1      -2.789   2.396   2.751  0.00  0.00     0.051 A 
ATOM      5  C   UNL d   1      -1.893   2.674   3.808  0.00  0.00     0.037 A 
ATOM      6  C   UNL d   1      -2.316   3.076   5.052  0.00  0.00     0.058 A 
ATOM      7  S   UNL d   1      -0.315   2.356   3.056  0.00  0.00    -0.057 SA
ATOM      8  C   UNL d   1      -0.927   1.900   1.439  0.00  0.00     0.192 A 
ATOM      9  N   UNL d   1      -2.219   2.011   1.589  0.00  0.00    -0.339 N 
ATOM     10  HN  UNL d   1      -2.822   1.799   0.795  1.00  0.00     0.167 HD
ENDROOT
BRANCH   8  11
ATOM     11  S   UNL d   1      -0.017   1.417   0.010  0.00  0.00     0.279 S 
ATOM     12  O   UNL d   1       0.002  -0.004   0.002  0.00  0.00    -0.199 OA
ATOM     13  O   UNL d   1       1.172   2.195   0.003  0.00  0.00    -0.199 OA
BRANCH  11  14
ATOM     14  N   UNL d   1      -0.897   1.885  -1.312  0.00  0.00    -0.323 N 
ATOM     15  H   UNL d   1      -1.747   2.338  -1.194  0.00  0.00     0.169 HD
ATOM     16  H   UNL d   1      -0.563   1.708  -2.205  0.00  0.00     0.169 HD
ENDBRANCH  11  14
ENDBRANCH   8  11
BRANCH   1  17
ATOM     17  O   UNL d   1      -4.115   3.615   6.518  0.00  0.00    -0.351 OA
BRANCH  17  18
ATOM     18  C   UNL d   1      -5.528   3.739   6.689  0.00  0.00     0.171 C 
ATOM     19  C   UNL d   1      -5.832   4.191   8.119  0.00  0.00     0.034 C 
ENDBRANCH  17  18
ENDBRANCH   1  17
TORSDOF 4
