REMARK  3 active torsions:
REMARK  status: ('A' for Active; 'I' for Inactive)
REMARK    1  A    between atoms: C_2  and  N_3 
REMARK    2  A    between atoms: N_3  and  C_4 
REMARK       I    between atoms: N_3  and  C_23 
REMARK    3  A    between atoms: C_8  and  C_10 
ROOT
ATOM      1  C   UNL d   1       1.585  -1.703  -1.245  0.00  0.00     0.070 A 
ATOM      2  C   UNL d   1       0.553  -2.255  -1.980  0.00  0.00     0.049 A 
ATOM      3  C   UNL d   1       0.752  -3.482  -2.613  0.00  0.00     0.092 A 
ATOM      4  N   UNL d   1       1.904  -4.108  -2.500  0.00  0.00    -0.349 N 
ATOM      5  HN  UNL d   1       2.033  -5.006  -2.966  1.00  0.00     0.166 HD
ATOM      6  C   UNL d   1       2.907  -3.590  -1.790  0.00  0.00     0.149 A 
ATOM      7  N   UNL d   1       2.770  -2.388  -1.153  0.00  0.00    -0.238 N 
ATOM      8  N   UNL d   1       3.972  -2.105  -0.496  0.00  0.00    -0.302 N 
ATOM      9  HN  UNL d   1       4.156  -1.270   0.061  1.00  0.00     0.186 HD
ATOM     10  C   UNL d   1       4.823  -3.075  -0.706  0.00  0.00     0.134 A 
ATOM     11  C   UNL d   1       4.211  -4.046  -1.517  0.00  0.00     0.107 A 
ATOM     12  C   UNL d   1       4.801  -5.267  -1.978  0.00  0.00     0.105 C 
ATOM     13  N   UNL d   1       5.269  -6.235  -2.343  0.00  0.00    -0.191 NA
ENDROOT
BRANCH   1  14
ATOM     14  C   UNL d   1       1.413  -0.402  -0.566  0.00  0.00    -0.005 A 
ATOM     15  C   UNL d   1       2.492   0.193   0.091  0.00  0.00     0.014 A 
ATOM     16  C   UNL d   1       2.329   1.408   0.724  0.00  0.00     0.003 A 
ATOM     17  C   UNL d   1       1.099   2.040   0.711  0.00  0.00     0.030 A 
ATOM     18  C   UNL d   1       0.019   1.456   0.061  0.00  0.00     0.038 A 
ATOM     19  C   UNL d   1       0.172   0.236  -0.578  0.00  0.00     0.043 A 
BRANCH  18  20
ATOM     20  N   UNL d   1      -1.222   2.103   0.046  0.00  0.00    -0.319 N 
ATOM     21  C   UNL d   1      -2.148   1.804   0.978  0.00  0.00     0.220 C 
ATOM     22  O   UNL d   1      -3.256   2.294   0.911  0.00  0.00    -0.273 OA
ATOM     23  C   UNL d   1      -1.808   0.862   2.104  0.00  0.00     0.117 C 
BRANCH  20  24
ATOM     24  C   UNL d   1      -1.514   3.104  -0.983  0.00  0.00     0.128 C 
ATOM     25  C   UNL d   1      -2.144   2.419  -2.197  0.00  0.00     0.027 C 
ENDBRANCH  20  24
ENDBRANCH  18  20
ENDBRANCH   1  14
TORSDOF 3
