REMARK  5 active torsions:
REMARK  status: ('A' for Active; 'I' for Inactive)
REMARK    1  A    between atoms: C_4  and  N_17 
REMARK    2  A    between atoms: C_5  and  O_23 
REMARK    3  A    between atoms: C_6  and  C_7 
REMARK    4  A    between atoms: C_11  and  N_13 
REMARK    5  A    between atoms: C_12  and  O_21 
ROOT
ATOM      1  C   UNL d   1       2.397   1.402  -0.014  0.00  0.00     0.039 A 
ATOM      2  C   UNL d   1       2.401   0.020  -0.021  0.00  0.00     0.037 A 
ATOM      3  C   UNL d   1       1.207  -0.680  -0.013  0.00  0.00     0.062 A 
ATOM      4  C   UNL d   1       0.002  -0.004   0.002  0.00  0.00     0.138 A 
ATOM      5  C   UNL d   1      -0.017   1.381   0.010  0.00  0.00     0.110 A 
ATOM      6  C   UNL d   1       1.187   2.092   0.002  0.00  0.00     0.014 A 
ATOM      7 CL   UNL d   1       3.909  -0.840  -0.040  0.00  0.00    -0.084 Cl
ENDROOT
BRANCH   6   8
ATOM      8  C   UNL d   1       1.176   3.575   0.009  0.00  0.00     0.014 A 
ATOM      9  C   UNL d   1       0.670   4.268   1.114  0.00  0.00     0.110 A 
ATOM     10  C   UNL d   1       0.664   5.653   1.113  0.00  0.00     0.138 A 
ATOM     11  C   UNL d   1       1.156   6.348   0.024  0.00  0.00     0.062 A 
ATOM     12  C   UNL d   1       1.658   5.665  -1.071  0.00  0.00     0.037 A 
ATOM     13  C   UNL d   1       1.675   4.284  -1.081  0.00  0.00     0.039 A 
ATOM     14 CL   UNL d   1       2.274   6.548  -2.433  0.00  0.00    -0.084 Cl
BRANCH   9  15
ATOM     15  O   UNL d   1       0.186   3.584   2.184  0.00  0.00    -0.357 OA
ATOM     16  HO  UNL d   1      -0.158   4.055   2.934  1.00  0.00     0.217 HD
ENDBRANCH   9  15
BRANCH  10  17
ATOM     17  N   UNL d   1       0.129   6.390   2.280  0.00  0.00    -0.113 N 
ATOM     18  O   UNL d   1       0.124   7.608   2.280  0.00  0.00    -0.532 OA
ATOM     19  O   UNL d   1      -0.305   5.779   3.240  0.00  0.00    -0.532 OA
ENDBRANCH  10  17
ENDBRANCH   6   8
BRANCH   5  20
ATOM     20  O   UNL d   1      -1.201   2.047   0.019  0.00  0.00    -0.357 OA
ATOM     21  HO  UNL d   1      -1.214   2.996   0.024  1.00  0.00     0.217 HD
ENDBRANCH   5  20
BRANCH   4  22
ATOM     22  N   UNL d   1      -1.270  -0.761   0.010  0.00  0.00    -0.113 N 
ATOM     23  O   UNL d   1      -1.254  -1.978   0.003  0.00  0.00    -0.532 OA
ATOM     24  O   UNL d   1      -2.333  -0.165   0.023  0.00  0.00    -0.532 OA
ENDBRANCH   4  22
TORSDOF 5
