REMARK  11 active torsions:
REMARK  status: ('A' for Active; 'I' for Inactive)
REMARK    1  A    between atoms: C_5  and  C_8 
REMARK    2  A    between atoms: C_8  and  O_10 
REMARK    3  A    between atoms: O_10  and  C_11 
REMARK    4  A    between atoms: C_14  and  C_27 
REMARK    5  A    between atoms: C_16  and  O_17 
REMARK    6  A    between atoms: O_17  and  C_18 
REMARK    7  A    between atoms: C_18  and  C_20 
REMARK    8  A    between atoms: C_27  and  C_28 
REMARK    9  A    between atoms: C_27  and  O_33 
REMARK   10  A    between atoms: C_28  and  N_35 
REMARK   11  A    between atoms: C_29  and  N_35 
ROOT
ATOM      1  C   UNL d   1      -2.587   3.972  -0.046  0.00  0.00     0.113 A 
ATOM      2  C   UNL d   1      -3.679   3.120   0.015  0.00  0.00     0.041 A 
ATOM      3  C   UNL d   1      -4.955   3.640   0.120  0.00  0.00     0.013 A 
ATOM      4  C   UNL d   1      -5.147   5.009   0.163  0.00  0.00    -0.025 A 
ATOM      5  C   UNL d   1      -4.063   5.864   0.102  0.00  0.00     0.050 A 
ATOM      6  C   UNL d   1      -2.779   5.350   0.004  0.00  0.00     0.114 A 
ENDROOT
BRANCH   4   7
ATOM      7  C   UNL d   1      -6.541   5.570   0.276  0.00  0.00     0.177 C 
BRANCH   7   8
ATOM      8  C   UNL d   1      -6.956   5.612   1.748  0.00  0.00     0.269 C 
BRANCH   8   9
ATOM      9  N   UNL d   1      -8.321   6.162   1.850  0.00  0.00    -0.065 N 
ATOM     10  H   UNL d   1      -8.967   5.563   1.323  0.00  0.00     0.278 HD
ATOM     11  H   UNL d   1      -8.334   7.110   1.457  0.00  0.00     0.278 HD
BRANCH   9  12
ATOM     12  C   UNL d   1      -8.748   6.215   3.261  0.00  0.00     0.115 C 
ATOM     13  C   UNL d   1      -7.793   7.110   4.054  0.00  0.00     0.045 C 
ATOM     14  C   UNL d   1     -10.164   6.788   3.335  0.00  0.00     0.045 C 
ATOM     15  C   UNL d   1      -8.736   4.805   3.855  0.00  0.00     0.045 C 
ENDBRANCH   9  12
ENDBRANCH   8   9
ENDBRANCH   7   8
BRANCH   7  16
ATOM     16  O   UNL d   1      -7.449   4.739  -0.451  0.00  0.00    -0.389 OA
ATOM     17  H   UNL d   1      -7.483   3.825  -0.137  0.00  0.00     0.210 HD
ENDBRANCH   7  16
ENDBRANCH   4   7
BRANCH   6  18
ATOM     18  O   UNL d   1      -1.711   6.189  -0.051  0.00  0.00    -0.272 OA
BRANCH  18  19
ATOM     19  C   UNL d   1      -1.258   6.524  -1.274  0.00  0.00     0.298 C 
ATOM     20  O   UNL d   1      -1.740   6.008  -2.263  0.00  0.00    -0.259 OA
BRANCH  19  21
ATOM     21  C   UNL d   1      -0.174   7.518  -1.414  0.00  0.00     0.040 A 
ATOM     22  C   UNL d   1       0.298   7.867  -2.681  0.00  0.00     0.018 A 
ATOM     23  C   UNL d   1       1.310   8.797  -2.804  0.00  0.00     0.007 A 
ATOM     24  C   UNL d   1       1.856   9.383  -1.676  0.00  0.00    -0.062 A 
ATOM     25  C   UNL d   1       1.393   9.041  -0.418  0.00  0.00     0.007 A 
ATOM     26  C   UNL d   1       2.961  10.398  -1.819  0.00  0.00     0.048 C 
ATOM     27  C   UNL d   1       0.378   8.117  -0.280  0.00  0.00     0.018 A 
ENDBRANCH  19  21
ENDBRANCH  18  19
ENDBRANCH   6  18
BRANCH   1  28
ATOM     28  O   UNL d   1      -1.331   3.463  -0.149  0.00  0.00    -0.272 OA
BRANCH  28  29
ATOM     29  C   UNL d   1      -0.645   3.289   0.998  0.00  0.00     0.298 C 
ATOM     30  O   UNL d   1      -1.117   3.669   2.051  0.00  0.00    -0.259 OA
BRANCH  29  31
ATOM     31  C   UNL d   1       0.680   2.637   0.975  0.00  0.00     0.040 A 
ATOM     32  C   UNL d   1       1.393   2.456   2.161  0.00  0.00     0.018 A 
ATOM     33  C   UNL d   1       2.628   1.841   2.133  0.00  0.00     0.007 A 
ATOM     34  C   UNL d   1       3.159   1.404   0.933  0.00  0.00    -0.062 A 
ATOM     35  C   UNL d   1       4.509   0.733   0.910  0.00  0.00     0.048 C 
ATOM     36  C   UNL d   1       2.458   1.580  -0.247  0.00  0.00     0.007 A 
ATOM     37  C   UNL d   1       1.223   2.194  -0.233  0.00  0.00     0.018 A 
ENDBRANCH  29  31
ENDBRANCH  28  29
ENDBRANCH   1  28
TORSDOF 11
