REMARK  3 active torsions:
REMARK  status: ('A' for Active; 'I' for Inactive)
REMARK    1  A    between atoms: C_2  and  O_3 
REMARK    2  A    between atoms: O_3  and  C_4 
REMARK    3  A    between atoms: C_4  and  C_6 
ROOT
ATOM      1  C   UNL d   1      -1.115   2.310   0.019  0.00  0.00     0.134 A 
ATOM      2  C   UNL d   1      -0.018   1.503   0.010  0.00  0.00     0.068 A 
ATOM      3  N   UNL d   1       1.072   2.307   0.004  0.00  0.00    -0.307 N 
ATOM      4  C   UNL d   1       0.631   3.595  -0.036  0.00  0.00     0.189 A 
ATOM      5  N   UNL d   1      -0.671   3.595  -0.015  0.00  0.00    -0.345 N 
ATOM      6  HN  UNL d   1      -1.263   4.426  -0.023  1.00  0.00     0.167 HD
ATOM      7  C   UNL d   1       2.402   1.884   0.059  0.00  0.00     0.056 A 
ATOM      8  C   UNL d   1       3.293   2.638   0.817  0.00  0.00     0.034 A 
ATOM      9  C   UNL d   1       4.603   2.232   0.967  0.00  0.00     0.044 A 
ATOM     10  C   UNL d   1       5.040   1.064   0.359  0.00  0.00     0.117 A 
ATOM     11  C   UNL d   1       4.174   0.316  -0.407  0.00  0.00     0.061 A 
ATOM     12  C   UNL d   1       2.840   0.723  -0.579  0.00  0.00     0.062 A 
ATOM     13  C   UNL d   1       1.980  -0.101  -1.432  0.00  0.00     0.256 C 
ATOM     14  O   UNL d   1       2.480  -0.527  -2.455  0.00  0.00    -0.267 OA
ATOM     15  N   UNL d   1       0.709  -0.434  -1.210  0.00  0.00    -0.347 N 
ATOM     16  C   UNL d   1       0.002  -0.004   0.002  0.00  0.00     0.185 C 
ATOM     17  C   UNL d   1      -0.001  -1.249  -2.199  0.00  0.00     0.153 C 
ATOM     18  F   UNL d   1       6.319   0.660   0.518  0.00  0.00    -0.206 F 
ENDROOT
BRANCH   1  19
ATOM     19  C   UNL d   1      -2.519   1.873   0.058  0.00  0.00     0.312 C 
ATOM     20  O   UNL d   1      -2.787   0.688   0.086  0.00  0.00    -0.258 OA
BRANCH  19  21
ATOM     21  O   UNL d   1      -3.510   2.788   0.063  0.00  0.00    -0.317 OA
BRANCH  21  22
ATOM     22  C   UNL d   1      -4.871   2.285   0.102  0.00  0.00     0.175 C 
ATOM     23  C   UNL d   1      -5.849   3.461   0.101  0.00  0.00     0.034 C 
ENDBRANCH  21  22
ENDBRANCH  19  21
ENDBRANCH   1  19
TORSDOF 3
