REMARK  9 active torsions:
REMARK  status: ('A' for Active; 'I' for Inactive)
REMARK    1  A    between atoms: C_3  and  O_37 
REMARK    2  A    between atoms: C_4  and  N_44 
REMARK    3  A    between atoms: C_6  and  O_8 
REMARK    4  A    between atoms: O_8  and  C_9 
REMARK    5  A    between atoms: C_11  and  C_33 
REMARK    6  A    between atoms: C_11  and  O_36 
REMARK    7  A    between atoms: C_15  and  O_32 
REMARK    8  A    between atoms: C_18  and  O_19 
REMARK    9  A    between atoms: C_26  and  O_30 
ROOT
ATOM      1  C   UNL d   1       1.287   2.044   0.002  0.00  0.00     0.164 C 
ATOM      2  C   UNL d   1       1.257   3.319   0.842  0.00  0.00     0.083 C 
ATOM      3  C   UNL d   1       2.578   4.067   0.628  0.00  0.00     0.124 C 
ATOM      4  C   UNL d   1       2.591   4.619  -0.795  0.00  0.00     0.088 C 
ATOM      5  C   UNL d   1       2.263   3.534  -1.789  0.00  0.00    -0.009 A 
ATOM      6  C   UNL d   1       1.662   2.356  -1.424  0.00  0.00     0.014 A 
ATOM      7  C   UNL d   1       1.373   1.385  -2.393  0.00  0.00     0.090 A 
ATOM      8  C   UNL d   1       1.695   1.602  -3.731  0.00  0.00     0.066 A 
ATOM      9  C   UNL d   1       2.315   2.812  -4.105  0.00  0.00     0.066 A 
ATOM     10  C   UNL d   1       2.594   3.768  -3.130  0.00  0.00     0.088 A 
ATOM     11  C   UNL d   1       2.661   3.057  -5.516  0.00  0.00     0.197 A 
ATOM     12  O   UNL d   1       3.194   4.101  -5.840  0.00  0.00    -0.286 OA
ATOM     13  C   UNL d   1       2.359   2.032  -6.537  0.00  0.00     0.032 A 
ATOM     14  C   UNL d   1       2.683   2.254  -7.871  0.00  0.00     0.017 A 
ATOM     15  C   UNL d   1       2.400   1.289  -8.823  0.00  0.00     0.004 A 
ATOM     16  C   UNL d   1       1.796   0.102  -8.461  0.00  0.00     0.038 A 
ATOM     17  C   UNL d   1       1.462  -0.141  -7.133  0.00  0.00     0.083 A 
ATOM     18  C   UNL d   1       1.742   0.825  -6.160  0.00  0.00     0.062 A 
ATOM     19  C   UNL d   1       1.394   0.581  -4.749  0.00  0.00     0.200 A 
ATOM     20  O   UNL d   1       0.859  -0.462  -4.425  0.00  0.00    -0.286 OA
ENDROOT
BRANCH   1  21
ATOM     21  O   UNL d   1      -0.005   1.434   0.026  0.00  0.00    -0.351 OA
BRANCH  21  22
ATOM     22  C   UNL d   1      -0.232   0.598   1.163  0.00  0.00     0.263 C 
ATOM     23  C   UNL d   1      -1.711   0.210   1.224  0.00  0.00     0.096 C 
ATOM     24  C   UNL d   1      -1.935  -0.735   2.410  0.00  0.00     0.219 C 
ATOM     25  C   UNL d   1      -1.020  -1.954   2.256  0.00  0.00     0.177 C 
ATOM     26  C   UNL d   1       0.433  -1.482   2.155  0.00  0.00     0.151 C 
ATOM     27  C   UNL d   1       0.828  -0.765   3.447  0.00  0.00     0.042 C 
ATOM     28  O   UNL d   1       0.565  -0.584   1.052  0.00  0.00    -0.354 OA
BRANCH  24  29
ATOM     29  N   UNL d   1      -3.337  -1.185   2.454  0.00  0.00    -0.072 N 
ATOM     30  H   UNL d   1      -3.960  -0.382   2.527  0.00  0.00     0.274 HD
ATOM     31  H   UNL d   1      -3.562  -1.712   1.612  0.00  0.00     0.274 HD
ATOM     32  H   UNL d   1      -3.472  -1.789   3.274  0.00  0.00     0.274 HD
ENDBRANCH  24  29
BRANCH  25  33
ATOM     33  O   UNL d   1      -1.167  -2.807   3.393  0.00  0.00    -0.391 OA
ATOM     34  H   UNL d   1      -0.616  -3.601   3.363  0.00  0.00     0.210 HD
ENDBRANCH  25  33
ENDBRANCH  21  22
ENDBRANCH   1  21
BRANCH   7  35
ATOM     35  O   UNL d   1       0.776   0.225  -2.025  0.00  0.00    -0.359 OA
ATOM     36  H   UNL d   1      -0.185   0.227  -2.127  0.00  0.00     0.217 HD
ENDBRANCH   7  35
BRANCH   3  37
ATOM     37  C   UNL d   1       2.684   5.203   1.614  0.00  0.00     0.157 C 
ATOM     38  O   UNL d   1       1.684   5.676   2.098  0.00  0.00    -0.295 OA
ATOM     39  C   UNL d   1       4.037   5.747   1.995  0.00  0.00     0.094 C 
ENDBRANCH   3  37
BRANCH   3  40
ATOM     40  O   UNL d   1       3.675   3.170   0.808  0.00  0.00    -0.382 OA
ATOM     41  H   UNL d   1       4.542   3.575   0.669  0.00  0.00     0.211 HD
ENDBRANCH   3  40
BRANCH  10  42
ATOM     42  O   UNL d   1       3.192   4.933  -3.482  0.00  0.00    -0.359 OA
ATOM     43  H   UNL d   1       4.158   4.904  -3.453  0.00  0.00     0.217 HD
ENDBRANCH  10  42
BRANCH  17  44
ATOM     44  O   UNL d   1       0.868  -1.308  -6.782  0.00  0.00    -0.355 OA
ATOM     45  C   UNL d   1       0.613  -2.246  -7.829  0.00  0.00     0.210 C 
ENDBRANCH  17  44
TORSDOF 9
