REMARK  5 active torsions:
REMARK  status: ('A' for Active; 'I' for Inactive)
REMARK    1  A    between atoms: C_6  and  O_21 
REMARK    2  A    between atoms: C_11  and  O_20 
REMARK    3  A    between atoms: C_12  and  N_28 
REMARK    4  A    between atoms: C_13  and  O_18 
REMARK    5  A    between atoms: C_14  and  N_25 
ROOT
ATOM      1  C   UNL d   1       0.172   5.310   3.081  0.00  0.00     0.040 C 
ATOM      2  C   UNL d   1      -1.287   4.851   3.140  0.00  0.00     0.128 C 
ATOM      3  C   UNL d   1      -2.073   5.521   2.009  0.00  0.00     0.116 C 
ATOM      4  C   UNL d   1      -1.619   4.934   0.684  0.00  0.00     0.196 C 
ATOM      5  O   UNL d   1      -1.334   5.635  -0.257  0.00  0.00    -0.292 OA
ATOM      6  C   UNL d   1      -1.543   3.427   0.605  0.00  0.00     0.277 C 
ATOM      7  C   UNL d   1      -0.731   2.945   1.815  0.00  0.00     0.331 C 
ATOM      8  O   UNL d   1      -1.343   3.427   3.005  0.00  0.00    -0.350 OA
ATOM      9  O   UNL d   1      -0.633   1.523   1.781  0.00  0.00    -0.345 OA
ATOM     10  C   UNL d   1       0.002   1.054   0.579  0.00  0.00     0.187 C 
ATOM     11  C   UNL d   1       1.438   1.583   0.555  0.00  0.00     0.183 C 
ATOM     12  C   UNL d   1       2.130   1.141  -0.736  0.00  0.00     0.247 C 
ATOM     13  C   UNL d   1       1.370   1.709  -1.937  0.00  0.00     0.184 C 
ATOM     14  C   UNL d   1      -0.062   1.170  -1.927  0.00  0.00     0.247 C 
ATOM     15  C   UNL d   1      -0.757   1.569  -0.644  0.00  0.00     0.190 C 
ATOM     16  O   UNL d   1      -0.883   2.994  -0.584  0.00  0.00    -0.335 OA
ENDROOT
BRANCH  12  17
ATOM     17  N   UNL d   1       2.132  -0.332  -0.816  0.00  0.00    -0.070 N 
ATOM     18  C   UNL d   1       3.190  -0.890   0.047  0.00  0.00     0.267 C 
ATOM     19  H   UNL d   1       2.301  -0.618  -1.787  0.00  0.00     0.277 HD
ATOM     20  H   UNL d   1       1.220  -0.689  -0.507  0.00  0.00     0.277 HD
ENDBRANCH  12  17
BRANCH  11  21
ATOM     21  O   UNL d   1       1.420   3.010   0.618  0.00  0.00    -0.391 OA
ATOM     22  H   UNL d   1       2.298   3.416   0.607  0.00  0.00     0.210 HD
ENDBRANCH  11  21
BRANCH  13  23
ATOM     23  O   UNL d   1       2.021   1.312  -3.145  0.00  0.00    -0.391 OA
ATOM     24  H   UNL d   1       2.936   1.616  -3.217  0.00  0.00     0.210 HD
ENDBRANCH  13  23
BRANCH  14  25
ATOM     25  N   UNL d   1      -0.023  -0.302  -2.018  0.00  0.00    -0.070 N 
ATOM     26  C   UNL d   1      -1.331  -0.822  -2.460  0.00  0.00     0.267 C 
ATOM     27  H   UNL d   1       0.202  -0.692  -1.096  0.00  0.00     0.277 HD
ATOM     28  H   UNL d   1       0.698  -0.581  -2.693  0.00  0.00     0.277 HD
ENDBRANCH  14  25
BRANCH   6  29
ATOM     29  O   UNL d   1      -2.857   2.867   0.655  0.00  0.00    -0.356 OA
ATOM     30  H   UNL d   1      -3.420   3.118  -0.090  0.00  0.00     0.213 HD
ENDBRANCH   6  29
TORSDOF 5
