REMARK  14 active torsions:
REMARK  status: ('A' for Active; 'I' for Inactive)
REMARK    1  A    between atoms: C_2  and  C_3 
REMARK    2  A    between atoms: C_4  and  O_54 
REMARK    3  A    between atoms: C_5  and  O_52 
REMARK    4  A    between atoms: C_11  and  O_49 
REMARK    5  A    between atoms: C_12  and  O_33 
REMARK    6  A    between atoms: C_14  and  O_20 
REMARK    7  A    between atoms: O_20  and  C_21 
REMARK    8  A    between atoms: C_23  and  O_30 
REMARK    9  A    between atoms: C_24  and  O_28 
REMARK   10  A    between atoms: O_33  and  C_34 
REMARK   11  A    between atoms: C_35  and  O_43 
REMARK   12  A    between atoms: C_36  and  N_59 
REMARK   13  A    between atoms: O_43  and  C_44 
REMARK   14  A    between atoms: C_44  and  C_46 
ROOT
ATOM      1  C   UNL d   1       6.340   3.343   2.713  0.00  0.00     0.168 C 
ATOM      2  C   UNL d   1       6.487   4.663   3.489  0.00  0.00     0.107 C 
ATOM      3  C   UNL d   1       5.090   5.094   3.915  0.00  0.00     0.165 C 
ATOM      4  C   UNL d   1       4.932   6.562   4.272  0.00  0.00     0.083 C 
ATOM      5  C   UNL d   1       3.457   6.889   4.285  0.00  0.00     0.137 C 
ATOM      6  O   UNL d   1       3.053   7.726   3.499  0.00  0.00    -0.297 OA
ATOM      7  C   UNL d   1       2.465   6.233   5.208  0.00  0.00     0.054 C 
ATOM      8  C   UNL d   1       2.792   4.765   5.425  0.00  0.00     0.051 C 
ATOM      9  C   UNL d   1       1.574   3.886   5.694  0.00  0.00     0.081 C 
ATOM     10  C   UNL d   1       1.744   2.562   4.957  0.00  0.00     0.165 C 
ATOM     11  C   UNL d   1       2.650   1.539   5.619  0.00  0.00     0.043 C 
ATOM     12  C   UNL d   1       2.920   0.406   4.633  0.00  0.00     0.144 C 
ATOM     13  C   UNL d   1       4.238   0.424   3.897  0.00  0.00     0.111 C 
ATOM     14  C   UNL d   1       4.630   1.755   3.323  0.00  0.00     0.265 C 
ATOM     15  O   UNL d   1       3.845   2.329   2.594  0.00  0.00    -0.265 OA
ATOM     16  O   UNL d   1       5.822   2.303   3.575  0.00  0.00    -0.312 OA
ATOM     17  C   UNL d   1       5.385  -0.187   4.709  0.00  0.00     0.023 C 
ATOM     18  C   UNL d   1       3.932   2.112   6.200  0.00  0.00     0.015 C 
ATOM     19  C   UNL d   1       1.366   3.676   7.192  0.00  0.00     0.049 C 
ATOM     20  C   UNL d   1       2.437   6.973   6.545  0.00  0.00     0.018 C 
ATOM     21  C   UNL d   1       5.563   6.910   5.612  0.00  0.00     0.020 C 
ATOM     22  C   UNL d   1       7.365   4.389   4.712  0.00  0.00     0.051 C 
ENDROOT
BRANCH  10  23
ATOM     23  O   UNL d   1       0.441   1.980   4.780  0.00  0.00    -0.350 OA
BRANCH  23  24
ATOM     24  C   UNL d   1      -0.150   2.252   3.508  0.00  0.00     0.292 C 
ATOM     25  O   UNL d   1       0.609   1.608   2.483  0.00  0.00    -0.354 OA
ATOM     26  C   UNL d   1       0.117   1.837   1.161  0.00  0.00     0.122 C 
ATOM     27  C   UNL d   1      -1.308   1.290   1.047  0.00  0.00     0.067 C 
ATOM     28  C   UNL d   1       1.019   1.127   0.150  0.00  0.00     0.040 C 
ATOM     29  C   UNL d   1      -2.192   1.962   2.103  0.00  0.00     0.223 C 
ATOM     30  C   UNL d   1      -1.585   1.721   3.488  0.00  0.00     0.217 C 
BRANCH  29  31
ATOM     31  N   UNL d   1      -3.541   1.360   2.058  0.00  0.00    -0.072 N 
ATOM     32  C   UNL d   1      -4.439   2.063   2.999  0.00  0.00     0.269 C 
ATOM     33  C   UNL d   1      -4.085   1.440   0.686  0.00  0.00     0.269 C 
ATOM     34  H   UNL d   1      -3.476   0.374   2.334  0.00  0.00     0.279 HD
ENDBRANCH  29  31
BRANCH  30  35
ATOM     35  O   UNL d   1      -1.580   0.297   3.775  0.00  0.00    -0.309 OA
BRANCH  35  36
ATOM     36  C   UNL d   1      -1.776  -0.068   5.052  0.00  0.00     0.259 C 
ATOM     37  O   UNL d   1      -2.041   0.766   5.885  0.00  0.00    -0.265 OA
BRANCH  36  38
ATOM     38  C   UNL d   1      -1.664  -1.518   5.446  0.00  0.00     0.106 C 
ATOM     39  C   UNL d   1      -2.056  -1.679   6.916  0.00  0.00     0.015 C 
ENDBRANCH  36  38
ENDBRANCH  35  36
ENDBRANCH  30  35
ENDBRANCH  23  24
ENDBRANCH  10  23
BRANCH   9  40
ATOM     40  O   UNL d   1       0.409   4.538   5.166  0.00  0.00    -0.388 OA
ATOM     41  H   UNL d   1       0.217   5.393   5.575  0.00  0.00     0.210 HD
ENDBRANCH   9  40
BRANCH  12  42
ATOM     42  O   UNL d   1       2.767  -0.848   5.323  0.00  0.00    -0.355 OA
BRANCH  42  43
ATOM     43  C   UNL d   1       3.449  -0.908   6.578  0.00  0.00     0.263 C 
ATOM     44  O   UNL d   1       2.671  -0.243   7.575  0.00  0.00    -0.354 OA
ATOM     45  C   UNL d   1       3.276  -0.222   8.870  0.00  0.00     0.152 C 
ATOM     46  C   UNL d   1       3.470  -1.658   9.364  0.00  0.00     0.181 C 
ATOM     47  C   UNL d   1       2.372   0.536   9.844  0.00  0.00     0.042 C 
ATOM     48  C   UNL d   1       4.327  -2.426   8.354  0.00  0.00     0.089 C 
ATOM     49  C   UNL d   1       3.650  -2.371   6.981  0.00  0.00     0.101 C 
ATOM     50  C   UNL d   1       4.461  -3.884   8.800  0.00  0.00     0.049 C 
BRANCH  46  51
ATOM     51  O   UNL d   1       2.197  -2.294   9.493  0.00  0.00    -0.390 OA
ATOM     52  H   UNL d   1       1.602  -1.860  10.119  0.00  0.00     0.210 HD
ENDBRANCH  46  51
BRANCH  48  53
ATOM     53  O   UNL d   1       5.622  -1.828   8.272  0.00  0.00    -0.383 OA
ATOM     54  C   UNL d   1       6.540  -2.542   7.441  0.00  0.00     0.202 C 
ENDBRANCH  48  53
ENDBRANCH  42  43
ENDBRANCH  12  42
BRANCH   3  55
ATOM     55  O   UNL d   1       4.209   4.835   2.797  0.00  0.00    -0.392 OA
ATOM     56  H   UNL d   1       4.447   5.311   1.990  0.00  0.00     0.210 HD
ENDBRANCH   3  55
BRANCH   1  57
ATOM     57  C   UNL d   1       7.708   2.927   2.177  0.00  0.00     0.031 C 
ATOM     58  C   UNL d   1       7.555   1.683   1.299  0.00  0.00     0.007 C 
ENDBRANCH   1  57
BRANCH   2  59
ATOM     59  O   UNL d   1       7.100   5.641   2.656  0.00  0.00    -0.385 OA
ATOM     60  H   UNL d   1       7.991   5.405   2.363  0.00  0.00     0.210 HD
ENDBRANCH   2  59
TORSDOF 14
