REMARK  5 active torsions:
REMARK  status: ('A' for Active; 'I' for Inactive)
REMARK    1  A    between atoms: CA_3  and  C_20 
REMARK    2  A    between atoms: CA_7  and  N_10 
REMARK       I    between atoms: N_10  and  C_11 
REMARK    3  A    between atoms: C_11  and  CA_13 
REMARK    4  A    between atoms: CA_13  and  C_14 
REMARK    5  A    between atoms: CA_13  and  N_26 
ROOT
ATOM      1  N   UNL d   1       3.890   2.648  -2.798  0.00  0.00    -0.344 N 
ATOM      2  C   UNL d   1       3.234   3.665  -2.204  0.00  0.00     0.253 C 
ATOM      3  O   UNL d   1       3.068   4.709  -2.798  0.00  0.00    -0.271 OA
ATOM      4  H   UNL d   1       4.023   1.813  -2.323  0.00  0.00     0.163 HD
ENDROOT
BRANCH   1   5
ATOM      5  CA  UNL d   1       4.404   2.805  -4.161  0.00  0.00     0.199 A 
ATOM      6  C   UNL d   1       4.581   1.475  -4.896  0.00  0.00     0.160 A 
ATOM      7  N   UNL d   1       6.009   1.858  -4.921  0.00  0.00    -0.219 NA
ATOM      8  S   UNL d   1       4.093   1.559  -6.670  0.00  0.00    -0.135 SA
ATOM      9  CA  UNL d   1       6.618   1.904  -6.253  0.00  0.00     0.186 C 
ATOM     10  C   UNL d   1       5.897   3.008  -4.215  0.00  0.00     0.227 A 
ATOM     11  C   UNL d   1       5.589   2.453  -7.287  0.00  0.00     0.029 C 
ATOM     12  C   UNL d   1       5.947   2.037  -8.715  0.00  0.00     0.029 C 
ATOM     13  C   UNL d   1       5.427   3.970  -7.171  0.00  0.00     0.029 C 
ATOM     14  O   UNL d   1       6.671   3.846  -3.803  0.00  0.00    -0.277 OA
BRANCH   9  15
ATOM     15  C   UNL d   1       7.825   2.805  -6.220  0.00  0.00     0.193 C 
ATOM     16  O   UNL d   1       7.744   3.907  -5.731  0.00  0.00    -0.647 OA
ATOM     17  OXT UNL d   1       8.991   2.385  -6.736  0.00  0.00    -0.647 OA
ENDBRANCH   9  15
ENDBRANCH   1   5
BRANCH   2  18
ATOM     18  CA  UNL d   1       2.706   3.504  -0.802  0.00  0.00     0.307 C 
BRANCH  18  19
ATOM     19  C   UNL d   1       1.409   2.737  -0.838  0.00  0.00    -0.019 A 
ATOM     20  C   UNL d   1       1.395   1.387  -0.540  0.00  0.00     0.010 A 
ATOM     21  C   UNL d   1       0.206   0.684  -0.573  0.00  0.00     0.001 A 
ATOM     22  C   UNL d   1      -0.971   1.331  -0.903  0.00  0.00     0.000 A 
ATOM     23  C   UNL d   1      -0.957   2.681  -1.200  0.00  0.00     0.001 A 
ATOM     24  C   UNL d   1       0.233   3.384  -1.167  0.00  0.00     0.010 A 
ENDBRANCH  18  19
BRANCH  18  25
ATOM     25  N   UNL d   1       2.499   4.838  -0.212  0.00  0.00    -0.062 N 
ATOM     26  H1  UNL d   1       1.804   5.354  -0.750  0.00  0.00     0.275 HD
ATOM     27  H2  UNL d   1       2.182   4.749   0.752  0.00  0.00     0.275 HD
ATOM     28  H3  UNL d   1       3.385   5.356  -0.227  0.00  0.00     0.275 HD
ENDBRANCH  18  25
ENDBRANCH   2  18
TORSDOF 5
