REMARK  9 active torsions:
REMARK  status: ('A' for Active; 'I' for Inactive)
REMARK    1  A    between atoms: C_3  and  S_10 
REMARK    2  A    between atoms: S_10  and  C_11 
REMARK    3  A    between atoms: C_11  and  C_12 
REMARK    4  A    between atoms: C_13  and  C_36 
REMARK    5  A    between atoms: C_16  and  N_19 
REMARK    6  A    between atoms: C_16  and  O_32 
REMARK       I    between atoms: N_19  and  C_20 
REMARK    7  A    between atoms: C_20  and  C_22 
REMARK    8  A    between atoms: C_25  and  C_26 
REMARK    9  A    between atoms: C_25  and  C_29 
REMARK       I    between atoms: C_26  and  N_28 
ROOT
ATOM      1  C   UNL d   1      -0.593   2.081   1.142  0.00  0.00    -0.027 C 
ATOM      2  C   UNL d   1       0.169   2.275   2.209  0.00  0.00     0.119 C 
ATOM      3  N   UNL d   1      -0.408   2.598   3.444  0.00  0.00    -0.288 N 
ATOM      4  C   UNL d   1      -1.831   2.422   3.849  0.00  0.00     0.221 C 
ATOM      5  C   UNL d   1      -1.608   3.426   4.966  0.00  0.00     0.250 C 
ATOM      6  C   UNL d   1      -0.160   3.200   4.601  0.00  0.00     0.285 C 
ATOM      7  O   UNL d   1       0.876   3.475   5.169  0.00  0.00    -0.267 OA
ATOM      8  S   UNL d   1      -2.828   3.023   2.443  0.00  0.00    -0.133 SA
ATOM      9  C   UNL d   1      -2.084   2.116   1.055  0.00  0.00     0.113 C 
ENDROOT
BRANCH   5  10
ATOM     10  N   UNL d   1      -1.979   2.943   6.298  0.00  0.00    -0.317 N 
ATOM     11  C   UNL d   1      -1.374   1.855   6.813  0.00  0.00     0.244 C 
ATOM     12  O   UNL d   1      -0.522   1.275   6.173  0.00  0.00    -0.271 OA
ATOM     13  H   UNL d   1      -2.661   3.407   6.810  0.00  0.00     0.166 HD
BRANCH  11  14
ATOM     14  C   UNL d   1      -1.756   1.357   8.183  0.00  0.00     0.211 C 
ATOM     15  S   UNL d   1      -0.396   0.530   9.068  0.00  0.00    -0.096 SA
ATOM     16  C   UNL d   1      -0.981   1.372  10.517  0.00  0.00     0.062 C 
ATOM     17  S   UNL d   1      -1.667   2.636   9.478  0.00  0.00    -0.096 SA
ATOM     18  C   UNL d   1      -0.925   1.137  11.897  0.00  0.00     0.131 C 
BRANCH  18  19
ATOM     19  C   UNL d   1      -1.643   2.016  12.818  0.00  0.00     0.258 C 
ATOM     20  O   UNL d   1      -1.679   1.754  14.007  0.00  0.00    -0.268 OA
ATOM     21  N   UNL d   1      -2.267   3.115  12.351  0.00  0.00    -0.366 N 
ATOM     22  H   UNL d   1      -2.301   3.285  11.397  0.00  0.00     0.159 HD
ATOM     23  H   UNL d   1      -2.683   3.737  12.969  0.00  0.00     0.159 HD
ENDBRANCH  18  19
BRANCH  18  24
ATOM     24  C   UNL d   1      -0.172   0.048  12.400  0.00  0.00     0.216 C 
ATOM     25  O   UNL d   1       0.504  -0.625  11.645  0.00  0.00    -0.644 OA
ATOM     26  O   UNL d   1      -0.204  -0.243  13.718  0.00  0.00    -0.644 OA
ENDBRANCH  18  24
ENDBRANCH  11  14
ENDBRANCH   5  10
BRANCH   5  27
ATOM     27  O   UNL d   1      -2.091   4.742   4.683  0.00  0.00    -0.355 OA
ATOM     28  C   UNL d   1      -1.876   5.679   5.740  0.00  0.00     0.205 C 
ENDBRANCH   5  27
BRANCH   2  29
ATOM     29  C   UNL d   1       1.633   2.150   2.096  0.00  0.00     0.227 C 
ATOM     30  O   UNL d   1       2.343   2.458   3.033  0.00  0.00    -0.643 OA
ATOM     31  O   UNL d   1       2.184   1.694   0.954  0.00  0.00    -0.643 OA
ENDBRANCH   2  29
BRANCH   1  32
ATOM     32  C   UNL d   1       0.137   1.794  -0.145  0.00  0.00     0.120 C 
BRANCH  32  33
ATOM     33  S   UNL d   1       0.541   0.032  -0.230  0.00  0.00    -0.087 SA
BRANCH  33  34
ATOM     34  C   UNL d   1       1.363  -0.018  -1.787  0.00  0.00     0.178 A 
ATOM     35  N   UNL d   1       1.896  -1.113  -2.381  0.00  0.00    -0.259 N 
ATOM     36  C   UNL d   1       1.909  -2.485  -1.868  0.00  0.00     0.181 C 
ATOM     37  N   UNL d   1       2.434  -0.650  -3.594  0.00  0.00    -0.224 N 
ATOM     38  N   UNL d   1       2.203   0.617  -3.646  0.00  0.00    -0.226 N 
ATOM     39  HN  UNL d   1       2.916  -1.209  -4.298  1.00  0.00     0.210 HD
ATOM     40  N   UNL d   1       1.571   0.999  -2.595  0.00  0.00    -0.263 N 
ATOM     41  HN  UNL d   1       2.482   1.230  -4.412  1.00  0.00     0.210 HD
ATOM     42  HN  UNL d   1       1.271   1.957  -2.413  1.00  0.00     0.190 HD
ENDBRANCH  33  34
ENDBRANCH  32  33
ENDBRANCH   1  32
TORSDOF 9
