REMARK  0 active torsions:
REMARK  status: ('A' for Active; 'I' for Inactive)
ROOT
ATOM      1  C   UNL d   1      -3.229   4.566   2.090  0.00  0.00     0.024 C 
ATOM      2  C   UNL d   1      -2.508   3.551   2.975  0.00  0.00     0.021 C 
ATOM      3  C   UNL d   1      -1.015   3.754   2.890  0.00  0.00     0.018 C 
ATOM      4  C   UNL d   1      -0.535   3.316   1.496  0.00  0.00     0.007 C 
ATOM      5  C   UNL d   1      -0.874   1.850   1.254  0.00  0.00     0.007 C 
ATOM      6  C   UNL d   1      -2.384   1.603   1.325  0.00  0.00     0.000 C 
ATOM      7  C   UNL d   1      -2.872   2.090   2.660  0.00  0.00     0.006 C 
ATOM      8  C   UNL d   1      -4.379   2.091   2.943  0.00  0.00     0.013 C 
ATOM      9  C   UNL d   1      -4.455   2.946   4.243  0.00  0.00     0.079 C 
ATOM     10  C   UNL d   1      -3.123   3.685   4.356  0.00  0.00     0.135 C 
ATOM     11  O   UNL d   1      -2.656   4.247   5.307  0.00  0.00    -0.297 OA
ATOM     12  C   UNL d   1      -3.122   2.190   0.129  0.00  0.00     0.043 C 
ATOM     13  C   UNL d   1      -2.510   1.588  -1.131  0.00  0.00    -0.060 C 
ATOM     14  C   UNL d   1      -3.234   0.965  -2.053  0.00  0.00     0.019 C 
ATOM     15  C   UNL d   1      -1.046   1.767  -1.225  0.00  0.00    -0.036 A 
ATOM     16  C   UNL d   1      -0.501   2.315  -2.324  0.00  0.00     0.063 A 
ATOM     17  C   UNL d   1       0.943   2.551  -2.386  0.00  0.00     0.172 A 
ATOM     18  O   UNL d   1       1.459   2.993  -3.396  0.00  0.00    -0.289 OA
ATOM     19  C   UNL d   1       1.754   2.250  -1.193  0.00  0.00     0.052 A 
ATOM     20  C   UNL d   1       1.195   1.711  -0.123  0.00  0.00    -0.008 A 
ATOM     21  C   UNL d   1      -0.247   1.332  -0.031  0.00  0.00     0.006 A 
ATOM     22  C   UNL d   1      -0.289  -0.201   0.013  0.00  0.00     0.025 C 
ENDROOT
TORSDOF 0
