REMARK  15 active torsions:
REMARK  status: ('A' for Active; 'I' for Inactive)
REMARK    1  A    between atoms: C_2  and  C_3 
REMARK    2  A    between atoms: C_3  and  O_5 
REMARK    3  A    between atoms: O_5  and  C_6 
REMARK    4  A    between atoms: C_6  and  C_7 
REMARK    5  A    between atoms: C_6  and  O_10 
REMARK    6  A    between atoms: O_10  and  P_11 
REMARK    7  A    between atoms: P_11  and  C_13 
REMARK    8  A    between atoms: P_11  and  C_23 
REMARK    9  A    between atoms: C_13  and  C_14 
REMARK   10  A    between atoms: C_14  and  C_15 
REMARK   11  A    between atoms: C_15  and  C_16 
REMARK   12  A    between atoms: C_16  and  C_17 
REMARK   13  A    between atoms: C_23  and  C_24 
REMARK       I    between atoms: C_24  and  N_26 
REMARK   14  A    between atoms: C_28  and  C_33 
REMARK   15  A    between atoms: C_30  and  C_31 
ROOT
ATOM      1  P   UNL d   1      -6.095  -1.425   3.163  0.00  0.00     0.208 P 
ATOM      2  O   UNL d   1      -6.868  -0.296   2.600  0.00  0.00    -0.291 OA
ENDROOT
BRANCH   1   3
ATOM      3  O   UNL d   1      -6.190  -2.688   2.170  0.00  0.00    -0.301 OA
BRANCH   3   4
ATOM      4  C   UNL d   1      -7.431  -3.283   1.783  0.00  0.00     0.280 C 
BRANCH   4   5
ATOM      5  O   UNL d   1      -7.266  -4.722   1.678  0.00  0.00    -0.289 OA
BRANCH   5   6
ATOM      6  C   UNL d   1      -7.088  -5.399   2.823  0.00  0.00     0.260 C 
ATOM      7  O   UNL d   1      -7.070  -4.810   3.878  0.00  0.00    -0.265 OA
BRANCH   6   8
ATOM      8  C   UNL d   1      -6.910  -6.896   2.793  0.00  0.00     0.107 C 
ATOM      9  C   UNL d   1      -6.727  -7.416   4.220  0.00  0.00     0.015 C 
ENDBRANCH   6   8
ENDBRANCH   5   6
ENDBRANCH   4   5
BRANCH   4  10
ATOM     10  C   UNL d   1      -7.866  -2.719   0.429  0.00  0.00     0.034 C 
ATOM     11  C   UNL d   1      -8.094  -1.212   0.553  0.00  0.00     0.014 C 
ATOM     12  C   UNL d   1      -6.775  -2.987  -0.610  0.00  0.00     0.014 C 
ENDBRANCH   4  10
ENDBRANCH   3   4
ENDBRANCH   1   3
BRANCH   1  13
ATOM     13  C   UNL d   1      -4.350  -0.931   3.352  0.00  0.00     0.102 C 
BRANCH  13  14
ATOM     14  C   UNL d   1      -3.812  -0.432   2.010  0.00  0.00     0.010 C 
BRANCH  14  15
ATOM     15  C   UNL d   1      -2.348  -0.018   2.169  0.00  0.00     0.005 C 
BRANCH  15  16
ATOM     16  C   UNL d   1      -1.810   0.480   0.826  0.00  0.00     0.038 C 
BRANCH  16  17
ATOM     17  C   UNL d   1      -0.368   0.888   0.983  0.00  0.00    -0.058 A 
ATOM     18  C   UNL d   1      -0.051   2.187   1.335  0.00  0.00     0.007 A 
ATOM     19  C   UNL d   1       1.272   2.563   1.474  0.00  0.00     0.001 A 
ATOM     20  C   UNL d   1       2.278   1.638   1.265  0.00  0.00     0.000 A 
ATOM     21  C   UNL d   1       1.962   0.338   0.918  0.00  0.00     0.001 A 
ATOM     22  C   UNL d   1       0.638  -0.037   0.780  0.00  0.00     0.007 A 
ENDBRANCH  16  17
ENDBRANCH  15  16
ENDBRANCH  14  15
ENDBRANCH  13  14
ENDBRANCH   1  13
BRANCH   1  23
ATOM     23  C   UNL d   1      -6.778  -1.878   4.790  0.00  0.00     0.204 C 
BRANCH  23  24
ATOM     24  C   UNL d   1      -8.265  -2.093   4.669  0.00  0.00     0.229 C 
ATOM     25  O   UNL d   1      -8.702  -3.206   4.466  0.00  0.00    -0.273 OA
ATOM     26  N   UNL d   1      -9.108  -1.048   4.785  0.00  0.00    -0.337 N 
ATOM     27  C   UNL d   1     -10.574  -1.115   4.688  0.00  0.00     0.188 C 
ATOM     28  C   UNL d   1      -8.715   0.350   5.037  0.00  0.00     0.132 C 
ATOM     29  C   UNL d   1     -11.111   0.322   4.858  0.00  0.00     0.043 C 
ATOM     30  C   UNL d   1      -9.888   1.196   4.476  0.00  0.00     0.010 C 
BRANCH  27  31
ATOM     31  C   UNL d   1     -11.120  -1.999   5.780  0.00  0.00     0.197 C 
ATOM     32  O   UNL d   1     -10.443  -2.251   6.748  0.00  0.00    -0.646 OA
ATOM     33  O   UNL d   1     -12.359  -2.505   5.677  0.00  0.00    -0.646 OA
ENDBRANCH  27  31
BRANCH  30  34
ATOM     34  C   UNL d   1      -9.954   2.562   5.163  0.00  0.00    -0.009 C 
ATOM     35  C   UNL d   1      -8.734   3.394   4.763  0.00  0.00     0.005 C 
ATOM     36  C   UNL d   1      -8.800   4.759   5.451  0.00  0.00     0.000 C 
ATOM     37  C   UNL d   1     -10.076   5.485   5.021  0.00  0.00     0.000 C 
ATOM     38  C   UNL d   1     -11.296   4.653   5.421  0.00  0.00     0.000 C 
ATOM     39  C   UNL d   1     -11.230   3.288   4.733  0.00  0.00     0.005 C 
ENDBRANCH  30  34
ENDBRANCH  23  24
ENDBRANCH   1  23
TORSDOF 15
