REMARK  17 active torsions:
REMARK  status: ('A' for Active; 'I' for Inactive)
REMARK    1  A    between atoms: C_2  and  N_51 
REMARK    2  A    between atoms: C_3  and  O_19 
REMARK    3  A    between atoms: C_4  and  O_18 
REMARK    4  A    between atoms: C_5  and  O_7 
REMARK    5  A    between atoms: C_6  and  N_45 
REMARK    6  A    between atoms: O_7  and  C_8 
REMARK    7  A    between atoms: C_9  and  O_17 
REMARK    8  A    between atoms: C_10  and  O_16 
REMARK    9  A    between atoms: C_11  and  O_15 
REMARK   10  A    between atoms: C_12  and  C_14 
REMARK   11  A    between atoms: C_14  and  N_47 
REMARK   12  A    between atoms: O_19  and  C_20 
REMARK   13  A    between atoms: C_21  and  O_29 
REMARK   14  A    between atoms: C_22  and  N_49 
REMARK   15  A    between atoms: C_23  and  O_28 
REMARK   16  A    between atoms: C_24  and  C_26 
REMARK   17  A    between atoms: C_26  and  O_27 
ROOT
ATOM      1  C   UNL d   1      -0.013   1.086   0.008  0.00  0.00     0.071 C 
ATOM      2  C   UNL d   1      -0.729   1.579   1.267  0.00  0.00     0.217 C 
ATOM      3  C   UNL d   1      -2.164   1.050   1.278  0.00  0.00     0.186 C 
ATOM      4  C   UNL d   1      -2.904   1.556   0.038  0.00  0.00     0.180 C 
ATOM      5  C   UNL d   1      -2.188   1.063  -1.221  0.00  0.00     0.186 C 
ATOM      6  C   UNL d   1      -0.753   1.593  -1.232  0.00  0.00     0.217 C 
ENDROOT
BRANCH   3   7
ATOM      7  O   UNL d   1      -2.833   1.510   2.453  0.00  0.00    -0.349 OA
BRANCH   7   8
ATOM      8  C   UNL d   1      -3.844   0.622   2.933  0.00  0.00     0.291 C 
ATOM      9  O   UNL d   1      -3.232  -0.553   3.467  0.00  0.00    -0.349 OA
ATOM     10  C   UNL d   1      -4.159  -1.525   3.954  0.00  0.00     0.179 C 
ATOM     11  C   UNL d   1      -4.984  -0.917   5.091  0.00  0.00     0.182 C 
ATOM     12  C   UNL d   1      -5.698   0.338   4.580  0.00  0.00     0.247 C 
ATOM     13  C   UNL d   1      -4.656   1.316   4.029  0.00  0.00     0.206 C 
BRANCH  10  14
ATOM     14  C   UNL d   1      -3.395  -2.745   4.473  0.00  0.00     0.198 C 
BRANCH  14  15
ATOM     15  O   UNL d   1      -2.719  -3.381   3.387  0.00  0.00    -0.398 OA
ATOM     16  H   UNL d   1      -2.212  -4.164   3.643  0.00  0.00     0.209 HD
ENDBRANCH  14  15
ENDBRANCH  10  14
BRANCH  11  17
ATOM     17  O   UNL d   1      -4.119  -0.566   6.174  0.00  0.00    -0.391 OA
ATOM     18  H   UNL d   1      -3.633  -1.314   6.547  0.00  0.00     0.210 HD
ENDBRANCH  11  17
BRANCH  12  19
ATOM     19  N   UNL d   1      -6.414   0.977   5.698  0.00  0.00    -0.070 N 
ATOM     20  H   UNL d   1      -6.907   1.805   5.370  0.00  0.00     0.274 HD
ATOM     21  H   UNL d   1      -7.082   0.324   6.104  0.00  0.00     0.274 HD
ATOM     22  H   UNL d   1      -5.736   1.254   6.418  0.00  0.00     0.274 HD
ENDBRANCH  12  19
BRANCH  13  23
ATOM     23  O   UNL d   1      -3.782   1.728   5.083  0.00  0.00    -0.388 OA
ATOM     24  H   UNL d   1      -3.093   2.346   4.803  0.00  0.00     0.210 HD
ENDBRANCH  13  23
ENDBRANCH   7   8
ENDBRANCH   3   7
BRANCH   2  25
ATOM     25  N   UNL d   1      -0.760   3.052   1.297  0.00  0.00    -0.072 N 
ATOM     26  H   UNL d   1       0.188   3.422   1.268  0.00  0.00     0.274 HD
ATOM     27  H   UNL d   1      -1.287   3.407   0.500  0.00  0.00     0.274 HD
ATOM     28  H   UNL d   1      -1.215   3.362   2.164  0.00  0.00     0.274 HD
ENDBRANCH   2  25
BRANCH   4  29
ATOM     29  O   UNL d   1      -4.245   1.062   0.048  0.00  0.00    -0.390 OA
ATOM     30  H   UNL d   1      -4.774   1.344  -0.710  0.00  0.00     0.210 HD
ENDBRANCH   4  29
BRANCH   5  31
ATOM     31  O   UNL d   1      -2.169  -0.366  -1.228  0.00  0.00    -0.349 OA
BRANCH  31  32
ATOM     32  C   UNL d   1      -3.297  -0.959  -1.874  0.00  0.00     0.292 C 
ATOM     33  O   UNL d   1      -3.220  -0.724  -3.281  0.00  0.00    -0.349 OA
ATOM     34  C   UNL d   1      -4.319  -1.256  -4.023  0.00  0.00     0.181 C 
ATOM     35  C   UNL d   1      -4.366  -2.776  -3.845  0.00  0.00     0.180 C 
ATOM     36  C   UNL d   1      -4.481  -3.103  -2.353  0.00  0.00     0.183 C 
ATOM     37  C   UNL d   1      -3.303  -2.467  -1.609  0.00  0.00     0.204 C 
BRANCH  34  38
ATOM     38  C   UNL d   1      -4.144  -0.922  -5.506  0.00  0.00     0.264 C 
BRANCH  38  39
ATOM     39  N   UNL d   1      -4.122   0.543  -5.668  0.00  0.00    -0.077 N 
ATOM     40  H   UNL d   1      -3.370   0.945  -5.111  0.00  0.00     0.274 HD
ATOM     41  H   UNL d   1      -3.983   0.783  -6.648  0.00  0.00     0.274 HD
ATOM     42  H   UNL d   1      -5.018   0.931  -5.351  0.00  0.00     0.274 HD
ENDBRANCH  38  39
ENDBRANCH  34  38
BRANCH  35  43
ATOM     43  O   UNL d   1      -3.170  -3.355  -4.370  0.00  0.00    -0.390 OA
ATOM     44  H   UNL d   1      -3.129  -4.318  -4.286  0.00  0.00     0.210 HD
ENDBRANCH  35  43
BRANCH  36  45
ATOM     45  O   UNL d   1      -4.452  -4.520  -2.169  0.00  0.00    -0.390 OA
ATOM     46  H   UNL d   1      -4.515  -4.799  -1.245  0.00  0.00     0.210 HD
ENDBRANCH  36  45
BRANCH  37  47
ATOM     47  O   UNL d   1      -2.078  -3.038  -2.074  0.00  0.00    -0.388 OA
ATOM     48  H   UNL d   1      -1.289  -2.676  -1.647  0.00  0.00     0.210 HD
ENDBRANCH  37  47
ENDBRANCH  31  32
ENDBRANCH   5  31
BRANCH   6  49
ATOM     49  N   UNL d   1      -0.080   1.130  -2.458  0.00  0.00    -0.072 N 
ATOM     50  H   UNL d   1       0.886   1.456  -2.471  0.00  0.00     0.274 HD
ATOM     51  H   UNL d   1      -0.094   0.112  -2.502  0.00  0.00     0.274 HD
ATOM     52  H   UNL d   1      -0.572   1.508  -3.276  0.00  0.00     0.274 HD
ENDBRANCH   6  49
TORSDOF 17
