REMARK  6 active torsions:
REMARK  status: ('A' for Active; 'I' for Inactive)
REMARK    1  A    between atoms: O_2  and  C_3 
REMARK    2  A    between atoms: C_4  and  N_13 
REMARK    3  A    between atoms: C_10  and  O_11 
REMARK    4  A    between atoms: N_13  and  S_14 
REMARK    5  A    between atoms: S_14  and  C_17 
REMARK    6  A    between atoms: C_20  and  N_23 
ROOT
ATOM      1  N   UNL d   1       1.553   2.269  -0.001  0.00  0.00    -0.263 N 
ATOM      2  H   UNL d   1       1.912   2.752   0.760  0.00  0.00     0.180 HD
ENDROOT
BRANCH   1   3
ATOM      3  C   UNL d   1       2.360   2.006  -1.100  0.00  0.00     0.154 A 
ATOM      4  C   UNL d   1       3.688   2.437  -1.124  0.00  0.00     0.164 A 
ATOM      5  C   UNL d   1       4.455   2.142  -2.248  0.00  0.00     0.181 A 
ATOM      6  N   UNL d   1       3.896   1.475  -3.254  0.00  0.00    -0.331 N 
ATOM      7  C   UNL d   1       2.638   1.090  -3.195  0.00  0.00     0.184 A 
ATOM      8  HN  UNL d   1       4.450   1.259  -4.083  1.00  0.00     0.168 HD
ATOM      9  N   UNL d   1       1.879   1.343  -2.148  0.00  0.00    -0.336 N 
ATOM     10  HN  UNL d   1       0.909   1.028  -2.142  1.00  0.00     0.168 HD
BRANCH   4  11
ATOM     11  O   UNL d   1       4.220   3.122  -0.075  0.00  0.00    -0.349 OA
ATOM     12  C   UNL d   1       4.839   2.351   0.957  0.00  0.00     0.210 C 
ENDBRANCH   4  11
BRANCH   5  13
ATOM     13  O   UNL d   1       5.752   2.534  -2.318  0.00  0.00    -0.339 OA
ATOM     14  C   UNL d   1       6.468   2.197  -3.508  0.00  0.00     0.211 C 
ENDBRANCH   5  13
ENDBRANCH   1   3
BRANCH   1  15
ATOM     15  S   UNL d   1      -0.022   1.758   0.012  0.00  0.00     0.264 S 
ATOM     16  O   UNL d   1      -0.590   2.163  -1.226  0.00  0.00    -0.200 OA
ATOM     17  O   UNL d   1      -0.566   2.150   1.264  0.00  0.00    -0.200 OA
BRANCH  15  18
ATOM     18  C   UNL d   1       0.002  -0.004   0.002  0.00  0.00     0.080 A 
ATOM     19  C   UNL d   1       0.023  -0.700   1.197  0.00  0.00     0.027 A 
ATOM     20  C   UNL d   1       0.042  -2.081   1.193  0.00  0.00     0.030 A 
ATOM     21  C   UNL d   1       0.040  -2.771  -0.013  0.00  0.00     0.025 A 
ATOM     22  C   UNL d   1       0.019  -2.068  -1.211  0.00  0.00     0.030 A 
ATOM     23  C   UNL d   1      -0.006  -0.688  -1.200  0.00  0.00     0.027 A 
BRANCH  21  24
ATOM     24  N   UNL d   1       0.059  -4.167  -0.021  0.00  0.00    -0.399 N 
ATOM     25  H   UNL d   1       0.074  -4.657   0.816  0.00  0.00     0.156 HD
ATOM     26  H   UNL d   1       0.058  -4.648  -0.864  0.00  0.00     0.156 HD
ENDBRANCH  21  24
ENDBRANCH  15  18
ENDBRANCH   1  15
TORSDOF 6
