REMARK  8 active torsions:
REMARK  status: ('A' for Active; 'I' for Inactive)
REMARK    1  A    between atoms: C_2  and  C_3 
REMARK    2  A    between atoms: C_3  and  C_6 
REMARK    3  A    between atoms: C_6  and  O_8 
REMARK    4  A    between atoms: O_8  and  C_9 
REMARK    5  A    between atoms: C_15  and  C_20 
REMARK    6  A    between atoms: C_20  and  C_21 
REMARK    7  A    between atoms: C_21  and  C_22 
REMARK    8  A    between atoms: C_24  and  O_29 
ROOT
ATOM      1  C   UNL d   1       2.597   1.490   0.218  0.00  0.00     0.141 C 
ATOM      2  C   UNL d   1       2.456   0.158   0.952  0.00  0.00     0.041 C 
ATOM      3  C   UNL d   1       1.515  -0.744   0.141  0.00  0.00     0.007 C 
ATOM      4  C   UNL d   1       0.173  -0.061   0.070  0.00  0.00    -0.015 C 
ATOM      5  C   UNL d   1       0.080   1.256   0.048  0.00  0.00    -0.055 C 
ATOM      6  C   UNL d   1       1.264   2.177   0.035  0.00  0.00     0.052 C 
ATOM      7  C   UNL d   1       1.033   3.266   1.085  0.00  0.00     0.004 C 
ATOM      8  C   UNL d   1      -0.212   4.064   0.698  0.00  0.00     0.009 C 
ATOM      9  C   UNL d   1      -1.373   3.167   0.396  0.00  0.00    -0.022 C 
ATOM     10  C   UNL d   1      -1.260   1.885   0.090  0.00  0.00     0.004 C 
ATOM     11  C   UNL d   1      -0.589   4.993   1.854  0.00  0.00     0.014 C 
ATOM     12  C   UNL d   1       1.370  -2.100   0.836  0.00  0.00     0.014 C 
ENDROOT
BRANCH   7  13
ATOM     13  C   UNL d   1       0.823   2.620   2.457  0.00  0.00     0.009 C 
BRANCH  13  14
ATOM     14  C   UNL d   1      -0.517   1.882   2.473  0.00  0.00     0.033 C 
BRANCH  14  15
ATOM     15  C   UNL d   1      -0.796   1.362   3.885  0.00  0.00     0.134 C 
ATOM     16  O   UNL d   1      -0.968   2.487   4.792  0.00  0.00    -0.316 OA
ATOM     17  C   UNL d   1      -1.365   2.173   6.043  0.00  0.00     0.261 C 
ATOM     18  C   UNL d   1      -2.568   1.270   6.205  0.00  0.00     0.142 C 
ATOM     19  O   UNL d   1      -0.774   2.599   7.007  0.00  0.00    -0.265 OA
ATOM     20  C   UNL d   1      -2.380   0.046   5.301  0.00  0.00     0.130 C 
ATOM     21  C   UNL d   1      -2.075   0.521   3.876  0.00  0.00     0.065 C 
BRANCH  20  22
ATOM     22  O   UNL d   1      -1.292  -0.743   5.785  0.00  0.00    -0.395 OA
ATOM     23  H   UNL d   1      -1.417  -1.077   6.683  0.00  0.00     0.210 HD
ENDBRANCH  20  22
ENDBRANCH  14  15
ENDBRANCH  13  14
ENDBRANCH   7  13
BRANCH   1  24
ATOM     24  O   UNL d   1       3.187   1.250  -1.086  0.00  0.00    -0.315 OA
BRANCH  24  25
ATOM     25  C   UNL d   1       4.527   1.292  -1.166  0.00  0.00     0.267 C 
ATOM     26  O   UNL d   1       5.184   1.522  -0.178  0.00  0.00    -0.264 OA
BRANCH  25  27
ATOM     27  C   UNL d   1       5.211   1.054  -2.487  0.00  0.00     0.040 C 
ATOM     28  C   UNL d   1       4.854  -0.342  -3.002  0.00  0.00     0.025 C 
ATOM     29  C   UNL d   1       4.747   2.104  -3.499  0.00  0.00     0.025 C 
BRANCH  27  30
ATOM     30  C   UNL d   1       6.726   1.157  -2.303  0.00  0.00     0.014 C 
ATOM     31  C   UNL d   1       7.421   0.915  -3.644  0.00  0.00     0.006 C 
ENDBRANCH  27  30
ENDBRANCH  25  27
ENDBRANCH  24  25
ENDBRANCH   1  24
TORSDOF 8
