REMARK  6 active torsions:
REMARK  status: ('A' for Active; 'I' for Inactive)
REMARK       I    between atoms: C_2  and  N_4 
REMARK    1  A    between atoms: N_4  and  C_5 
REMARK    2  A    between atoms: C_8  and  O_11 
REMARK    3  A    between atoms: O_11  and  C_12 
REMARK    4  A    between atoms: C_12  and  C_14 
REMARK    5  A    between atoms: C_19  and  O_20 
REMARK    6  A    between atoms: O_20  and  C_21 
ROOT
ATOM      1  O   UNL d   1      -1.548   7.665   0.297  0.00  0.00    -0.275 OA
ENDROOT
BRANCH   1   2
ATOM      2  C   UNL d   1      -1.463   6.313   0.191  0.00  0.00     0.079 A 
ATOM      3  C   UNL d   1      -0.966   5.564   1.248  0.00  0.00     0.039 A 
ATOM      4  C   UNL d   1      -0.884   4.189   1.142  0.00  0.00     0.032 A 
ATOM      5  C   UNL d   1      -1.290   3.558  -0.026  0.00  0.00     0.034 A 
ATOM      6  C   UNL d   1      -1.787   4.308  -1.084  0.00  0.00     0.032 A 
ATOM      7  C   UNL d   1      -1.873   5.682  -0.975  0.00  0.00     0.039 A 
BRANCH   5   8
ATOM      8  N   UNL d   1      -1.202   2.164  -0.136  0.00  0.00    -0.328 N 
ATOM      9  C   UNL d   1      -0.289   1.487   0.587  0.00  0.00     0.218 C 
ATOM     10  C   UNL d   1      -0.281  -0.019   0.571  0.00  0.00     0.117 C 
ATOM     11  O   UNL d   1       0.530   2.091   1.248  0.00  0.00    -0.274 OA
ATOM     12  H   UNL d   1      -1.799   1.687  -0.733  0.00  0.00     0.169 HD
ENDBRANCH   5   8
ENDBRANCH   1   2
BRANCH   1  13
ATOM     13  C   UNL d   1      -0.398   8.361   0.198  0.00  0.00     0.301 C 
ATOM     14  O   UNL d   1       0.662   7.773   0.111  0.00  0.00    -0.259 OA
BRANCH  13  15
ATOM     15  C   UNL d   1      -0.426   9.835   0.193  0.00  0.00     0.073 A 
ATOM     16  C   UNL d   1       0.768  10.562   0.089  0.00  0.00     0.095 A 
ATOM     17  C   UNL d   1       0.730  11.948   0.086  0.00  0.00     0.038 A 
ATOM     18  C   UNL d   1      -0.480  12.608   0.184  0.00  0.00     0.003 A 
ATOM     19  C   UNL d   1      -1.662  11.893   0.286  0.00  0.00     0.001 A 
ATOM     20  C   UNL d   1      -1.643  10.515   0.287  0.00  0.00     0.020 A 
BRANCH  16  21
ATOM     21  O   UNL d   1       1.955   9.913  -0.007  0.00  0.00    -0.278 OA
BRANCH  21  22
ATOM     22  C   UNL d   1       2.378   9.595  -1.242  0.00  0.00     0.260 C 
ATOM     23  O   UNL d   1       1.754   9.967  -2.208  0.00  0.00    -0.265 OA
ATOM     24  C   UNL d   1       3.629   8.775  -1.423  0.00  0.00     0.126 C 
ENDBRANCH  21  22
ENDBRANCH  16  21
ENDBRANCH  13  15
ENDBRANCH   1  13
TORSDOF 6
