REMARK  6 active torsions:
REMARK  status: ('A' for Active; 'I' for Inactive)
REMARK    1  A    between atoms: C_16  and  O_29 
REMARK    2  A    between atoms: C_19  and  C_20 
REMARK    3  A    between atoms: C_19  and  O_27 
REMARK    4  A    between atoms: C_20  and  C_22 
REMARK    5  A    between atoms: C_22  and  O_23 
REMARK    6  A    between atoms: O_23  and  C_24 
ROOT
ATOM      1  C   UNL d   1       5.049   2.607  -4.426  0.00  0.00     0.013 C 
ATOM      2  C   UNL d   1       5.141   2.213  -2.951  0.00  0.00     0.025 C 
ATOM      3  C   UNL d   1       4.854   3.446  -2.050  0.00  0.00     0.013 C 
ATOM      4  C   UNL d   1       3.396   3.231  -1.631  0.00  0.00     0.002 C 
ATOM      5  C   UNL d   1       2.853   4.040  -0.499  0.00  0.00     0.001 C 
ATOM      6  C   UNL d   1       3.760   4.150   0.723  0.00  0.00     0.047 C 
ATOM      7  C   UNL d   1       3.323   5.418   1.470  0.00  0.00     0.200 C 
ATOM      8  C   UNL d   1       1.819   5.439   1.601  0.00  0.00    -0.030 C 
ATOM      9  C   UNL d   1       1.304   6.489   2.261  0.00  0.00     0.061 C 
ATOM     10  C   UNL d   1      -0.162   6.620   2.400  0.00  0.00     0.172 C 
ATOM     11  O   UNL d   1      -0.656   7.388   3.220  0.00  0.00    -0.289 OA
ATOM     12  C   UNL d   1      -1.010   5.821   1.488  0.00  0.00     0.052 C 
ATOM     13  C   UNL d   1      -0.480   4.767   0.861  0.00  0.00    -0.008 C 
ATOM     14  C   UNL d   1       0.940   4.346   1.099  0.00  0.00     0.006 C 
ATOM     15  C   UNL d   1       1.475   3.544  -0.061  0.00  0.00     0.035 C 
ATOM     16  C   UNL d   1       1.383   2.040   0.096  0.00  0.00     0.124 C 
ATOM     17  C   UNL d   1       1.916   1.308  -1.158  0.00  0.00     0.045 C 
ATOM     18  C   UNL d   1       3.355   1.712  -1.368  0.00  0.00     0.001 C 
ATOM     19  C   UNL d   1       4.058   1.155  -2.614  0.00  0.00     0.131 C 
ATOM     20  C   UNL d   1       4.205   1.304  -0.162  0.00  0.00     0.019 C 
ATOM     21  C   UNL d   1       0.840   3.401   2.300  0.00  0.00     0.025 C 
ATOM     22  F   UNL d   1       3.734   6.544   0.753  0.00  0.00    -0.245 F 
ENDROOT
BRANCH  19  23
ATOM     23  C   UNL d   1       3.106   0.991  -3.763  0.00  0.00     0.186 C 
ATOM     24  O   UNL d   1       2.154   1.727  -3.868  0.00  0.00    -0.292 OA
BRANCH  23  25
ATOM     25  C   UNL d   1       3.338  -0.091  -4.785  0.00  0.00     0.260 C 
BRANCH  25  26
ATOM     26  O   UNL d   1       2.289  -0.044  -5.788  0.00  0.00    -0.314 OA
BRANCH  26  27
ATOM     27  C   UNL d   1       2.349  -0.949  -6.777  0.00  0.00     0.255 C 
ATOM     28  O   UNL d   1       3.249  -1.754  -6.804  0.00  0.00    -0.266 OA
ATOM     29  C   UNL d   1       1.295  -0.960  -7.853  0.00  0.00     0.126 C 
ENDBRANCH  26  27
ENDBRANCH  25  26
ENDBRANCH  23  25
ENDBRANCH  19  23
BRANCH  19  30
ATOM     30  O   UNL d   1       4.677  -0.095  -2.297  0.00  0.00    -0.381 OA
ATOM     31  H   UNL d   1       5.140  -0.504  -3.041  0.00  0.00     0.211 HD
ENDBRANCH  19  30
BRANCH  16  32
ATOM     32  O   UNL d   1       0.005   1.657   0.231  0.00  0.00    -0.395 OA
ATOM     33  H   UNL d   1      -0.130   0.705   0.336  0.00  0.00     0.210 HD
ENDBRANCH  16  32
TORSDOF 6
