REMARK  9 active torsions:
REMARK  status: ('A' for Active; 'I' for Inactive)
REMARK    1  A    between atoms: C_3  and  S_10 
REMARK    2  A    between atoms: S_10  and  C_11 
REMARK    3  A    between atoms: C_11  and  C_12 
REMARK    4  A    between atoms: C_13  and  C_31 
REMARK    5  A    between atoms: C_16  and  N_19 
REMARK    6  A    between atoms: C_16  and  O_27 
REMARK       I    between atoms: N_19  and  C_20 
REMARK    7  A    between atoms: C_20  and  C_22 
REMARK    8  A    between atoms: C_22  and  S_23 
REMARK    9  A    between atoms: S_23  and  C_24 
ROOT
ATOM      1  C   UNL d   1      13.118   1.445   4.279  0.00  0.00     0.197 C 
ATOM      2  C   UNL d   1      12.956   2.582   5.200  0.00  0.00     0.069 C 
ATOM      3  N   UNL d   1      12.831   3.459   5.910  0.00  0.00    -0.197 NA
ENDROOT
BRANCH   1   4
ATOM      4  S   UNL d   1      11.486   0.804   3.816  0.00  0.00    -0.146 SA
BRANCH   4   5
ATOM      5  C   UNL d   1      11.856  -0.573   2.695  0.00  0.00     0.177 C 
BRANCH   5   6
ATOM      6  C   UNL d   1      10.569  -1.203   2.229  0.00  0.00     0.229 C 
ATOM      7  N   UNL d   1      10.599  -2.252   1.384  0.00  0.00    -0.318 N 
ATOM      8  H   UNL d   1      11.449  -2.602   1.075  0.00  0.00     0.166 HD
ATOM      9  O   UNL d   1       9.506  -0.765   2.616  0.00  0.00    -0.273 OA
BRANCH   7  10
ATOM     10  C   UNL d   1       9.347  -2.864   0.931  0.00  0.00     0.250 C 
ATOM     11  C   UNL d   1       8.431  -1.902   0.182  0.00  0.00     0.221 C 
ATOM     12  N   UNL d   1       7.396  -2.242   1.209  0.00  0.00    -0.288 N 
ATOM     13  S   UNL d   1       7.768  -2.527  -1.399  0.00  0.00    -0.133 SA
ATOM     14  C   UNL d   1       6.013  -2.011   1.107  0.00  0.00     0.119 C 
ATOM     15  C   UNL d   1       8.271  -2.919   2.002  0.00  0.00     0.285 C 
ATOM     16  C   UNL d   1       5.453  -1.831  -0.080  0.00  0.00    -0.027 C 
ATOM     17  C   UNL d   1       6.113  -1.771  -1.419  0.00  0.00     0.113 C 
ATOM     18  O   UNL d   1       8.215  -3.376   3.125  0.00  0.00    -0.267 OA
BRANCH  14  19
ATOM     19  C   UNL d   1       5.183  -1.976   2.324  0.00  0.00     0.227 C 
ATOM     20  O   UNL d   1       5.046  -0.935   2.936  0.00  0.00    -0.643 OA
ATOM     21  O   UNL d   1       4.576  -3.098   2.758  0.00  0.00    -0.643 OA
ENDBRANCH  14  19
BRANCH  16  22
ATOM     22  C   UNL d   1       3.956  -1.658  -0.078  0.00  0.00     0.120 C 
BRANCH  22  23
ATOM     23  S   UNL d   1       3.552   0.096  -0.270  0.00  0.00    -0.087 SA
BRANCH  23  24
ATOM     24  C   UNL d   1       1.792   0.009  -0.235  0.00  0.00     0.178 A 
ATOM     25  N   UNL d   1       0.933   1.051  -0.340  0.00  0.00    -0.259 N 
ATOM     26  C   UNL d   1       1.269   2.467  -0.505  0.00  0.00     0.181 C 
ATOM     27  N   UNL d   1      -0.350   0.481  -0.259  0.00  0.00    -0.224 N 
ATOM     28  N   UNL d   1      -0.186  -0.789  -0.118  0.00  0.00    -0.226 N 
ATOM     29  HN  UNL d   1      -1.239   0.979  -0.303  1.00  0.00     0.210 HD
ATOM     30  N   UNL d   1       1.065  -1.079  -0.103  0.00  0.00    -0.263 N 
ATOM     31  HN  UNL d   1      -0.942  -1.468  -0.032  1.00  0.00     0.210 HD
ATOM     32  HN  UNL d   1       1.443  -2.021  -0.002  1.00  0.00     0.190 HD
ENDBRANCH  23  24
ENDBRANCH  22  23
ENDBRANCH  16  22
BRANCH  10  33
ATOM     33  O   UNL d   1       9.549  -4.107   0.256  0.00  0.00    -0.355 OA
ATOM     34  C   UNL d   1      10.405  -5.014   0.953  0.00  0.00     0.205 C 
ENDBRANCH  10  33
ENDBRANCH   7  10
ENDBRANCH   5   6
ENDBRANCH   4   5
ENDBRANCH   1   4
TORSDOF 9
