REMARK  14 active torsions:
REMARK  status: ('A' for Active; 'I' for Inactive)
REMARK    1  A    between atoms: C_2  and  C_3 
REMARK    2  A    between atoms: C_4  and  O_54 
REMARK    3  A    between atoms: C_5  and  O_52 
REMARK    4  A    between atoms: C_11  and  O_49 
REMARK    5  A    between atoms: C_12  and  O_33 
REMARK    6  A    between atoms: C_14  and  O_20 
REMARK    7  A    between atoms: O_20  and  C_21 
REMARK    8  A    between atoms: C_23  and  O_30 
REMARK    9  A    between atoms: C_24  and  O_28 
REMARK   10  A    between atoms: O_33  and  C_34 
REMARK   11  A    between atoms: C_35  and  O_43 
REMARK   12  A    between atoms: C_36  and  N_59 
REMARK   13  A    between atoms: O_43  and  C_44 
REMARK   14  A    between atoms: C_44  and  C_46 
ROOT
ATOM      1  C   UNL d   1      -2.381  -5.264   2.031  0.00  0.00     0.168 C 
ATOM      2  C   UNL d   1      -0.993  -5.890   1.884  0.00  0.00     0.107 C 
ATOM      3  C   UNL d   1      -0.070  -4.916   1.148  0.00  0.00     0.165 C 
ATOM      4  C   UNL d   1       0.723  -5.673   0.081  0.00  0.00     0.083 C 
ATOM      5  C   UNL d   1       0.785  -4.847  -1.179  0.00  0.00     0.137 C 
ATOM      6  O   UNL d   1       1.090  -3.680  -1.122  0.00  0.00    -0.297 OA
ATOM      7  C   UNL d   1       0.466  -5.479  -2.509  0.00  0.00     0.054 C 
ATOM      8  C   UNL d   1      -0.453  -4.551  -3.307  0.00  0.00     0.051 C 
ATOM      9  C   UNL d   1      -1.635  -5.353  -3.857  0.00  0.00     0.081 C 
ATOM     10  C   UNL d   1      -2.941  -4.628  -3.527  0.00  0.00     0.165 C 
ATOM     11  C   UNL d   1      -3.945  -5.625  -2.942  0.00  0.00     0.043 C 
ATOM     12  C   UNL d   1      -4.899  -4.893  -1.996  0.00  0.00     0.144 C 
ATOM     13  C   UNL d   1      -4.999  -5.662  -0.677  0.00  0.00     0.111 C 
ATOM     14  C   UNL d   1      -4.029  -5.080   0.318  0.00  0.00     0.265 C 
ATOM     15  O   UNL d   1      -3.909  -3.882   0.417  0.00  0.00    -0.265 OA
ATOM     16  O   UNL d   1      -3.296  -5.894   1.096  0.00  0.00    -0.312 OA
ATOM     17  C   UNL d   1      -6.423  -5.548  -0.127  0.00  0.00     0.023 C 
ATOM     18  C   UNL d   1      -4.745  -6.268  -4.076  0.00  0.00     0.015 C 
ATOM     19  C   UNL d   1      -1.496  -5.489  -5.374  0.00  0.00     0.049 C 
ATOM     20  C   UNL d   1       1.762  -5.706  -3.290  0.00  0.00     0.018 C 
ATOM     21  C   UNL d   1       2.143  -5.933   0.589  0.00  0.00     0.020 C 
ATOM     22  C   UNL d   1      -0.418  -6.188   3.270  0.00  0.00     0.051 C 
ENDROOT
BRANCH  10  23
ATOM     23  O   UNL d   1      -2.685  -3.595  -2.573  0.00  0.00    -0.350 OA
BRANCH  23  24
ATOM     24  C   UNL d   1      -1.872  -2.531  -3.073  0.00  0.00     0.292 C 
ATOM     25  O   UNL d   1      -2.677  -1.639  -3.846  0.00  0.00    -0.354 OA
ATOM     26  C   UNL d   1      -1.955  -0.547  -4.418  0.00  0.00     0.122 C 
ATOM     27  C   UNL d   1      -1.337   0.295  -3.298  0.00  0.00     0.067 C 
ATOM     28  C   UNL d   1      -2.908   0.320  -5.242  0.00  0.00     0.040 C 
ATOM     29  C   UNL d   1      -0.431  -0.594  -2.441  0.00  0.00     0.223 C 
ATOM     30  C   UNL d   1      -1.251  -1.768  -1.899  0.00  0.00     0.217 C 
BRANCH  29  31
ATOM     31  N   UNL d   1       0.085   0.195  -1.303  0.00  0.00    -0.072 N 
ATOM     32  C   UNL d   1       1.071  -0.601  -0.541  0.00  0.00     0.269 C 
ATOM     33  C   UNL d   1       0.713   1.440  -1.794  0.00  0.00     0.269 C 
ATOM     34  H   UNL d   1      -0.697   0.438  -0.684  0.00  0.00     0.279 HD
ENDBRANCH  29  31
BRANCH  30  35
ATOM     35  O   UNL d   1      -2.304  -1.267  -1.035  0.00  0.00    -0.309 OA
BRANCH  35  36
ATOM     36  C   UNL d   1      -2.441  -1.856   0.163  0.00  0.00     0.259 C 
ATOM     37  O   UNL d   1      -2.402  -3.060   0.253  0.00  0.00    -0.265 OA
BRANCH  36  38
ATOM     38  C   UNL d   1      -2.644  -1.015   1.397  0.00  0.00     0.106 C 
ATOM     39  C   UNL d   1      -3.622  -1.720   2.340  0.00  0.00     0.015 C 
ENDBRANCH  36  38
ENDBRANCH  35  36
ENDBRANCH  30  35
ENDBRANCH  23  24
ENDBRANCH  10  23
BRANCH   9  40
ATOM     40  O   UNL d   1      -1.647  -6.652  -3.261  0.00  0.00    -0.388 OA
ATOM     41  H   UNL d   1      -2.319  -7.245  -3.624  0.00  0.00     0.210 HD
ENDBRANCH   9  40
BRANCH  12  42
ATOM     42  O   UNL d   1      -4.403  -3.577  -1.743  0.00  0.00    -0.355 OA
BRANCH  42  43
ATOM     43  C   UNL d   1      -5.359  -2.540  -1.976  0.00  0.00     0.263 C 
ATOM     44  O   UNL d   1      -6.200  -2.401  -0.829  0.00  0.00    -0.354 OA
ATOM     45  C   UNL d   1      -7.215  -1.403  -0.965  0.00  0.00     0.152 C 
ATOM     46  C   UNL d   1      -6.558  -0.038  -1.183  0.00  0.00     0.181 C 
ATOM     47  C   UNL d   1      -8.068  -1.362   0.304  0.00  0.00     0.042 C 
ATOM     48  C   UNL d   1      -5.659  -0.103  -2.422  0.00  0.00     0.089 C 
ATOM     49  C   UNL d   1      -4.628  -1.220  -2.234  0.00  0.00     0.101 C 
ATOM     50  C   UNL d   1      -4.938   1.234  -2.603  0.00  0.00     0.049 C 
BRANCH  46  51
ATOM     51  O   UNL d   1      -5.770   0.301  -0.040  0.00  0.00    -0.390 OA
ATOM     52  H   UNL d   1      -6.276   0.358   0.783  0.00  0.00     0.210 HD
ENDBRANCH  46  51
BRANCH  48  53
ATOM     53  O   UNL d   1      -6.456  -0.378  -3.576  0.00  0.00    -0.383 OA
ATOM     54  C   UNL d   1      -5.702  -0.523  -4.782  0.00  0.00     0.202 C 
ENDBRANCH  48  53
ENDBRANCH  42  43
ENDBRANCH  12  42
BRANCH   3  55
ATOM     55  O   UNL d   1      -0.853  -3.896   0.525  0.00  0.00    -0.392 OA
ATOM     56  H   UNL d   1      -0.336  -3.265   0.007  0.00  0.00     0.210 HD
ENDBRANCH   3  55
BRANCH   1  57
ATOM     57  C   UNL d   1      -2.887  -5.475   3.459  0.00  0.00     0.031 C 
ATOM     58  C   UNL d   1      -3.525  -4.181   3.970  0.00  0.00     0.007 C 
ENDBRANCH   1  57
BRANCH   2  59
ATOM     59  O   UNL d   1      -1.094  -7.105   1.139  0.00  0.00    -0.385 OA
ATOM     60  H   UNL d   1      -1.664  -7.770   1.547  0.00  0.00     0.210 HD
ENDBRANCH   2  59
TORSDOF 14
