REMARK  7 active torsions:
REMARK  status: ('A' for Active; 'I' for Inactive)
REMARK    1  A    between atoms: C_2  and  O_4 
REMARK    2  A    between atoms: O_4  and  C_5 
REMARK    3  A    between atoms: C_5  and  C_6 
REMARK    4  A    between atoms: CA_7  and  C_24 
REMARK    5  A    between atoms: CA_10  and  N_13 
REMARK       I    between atoms: N_13  and  C_14 
REMARK    6  A    between atoms: C_14  and  C_16 
REMARK    7  A    between atoms: C_16  and  C_17 
ROOT
ATOM      1  C   UNL d   1      -5.334   3.903  -0.783  0.00  0.00    -0.013 C 
ATOM      2  CA  UNL d   1      -4.902   2.790  -1.357  0.00  0.00     0.121 C 
ATOM      3  N   UNL d   1      -3.913   2.011  -0.734  0.00  0.00    -0.293 N 
ATOM      4  C   UNL d   1      -3.542   2.038   0.717  0.00  0.00     0.187 C 
ATOM      5  CA  UNL d   1      -2.259   1.339   0.278  0.00  0.00     0.210 C 
ATOM      6  C   UNL d   1      -2.904   1.192  -1.089  0.00  0.00     0.251 C 
ATOM      7  O   UNL d   1      -2.622   0.581  -2.098  0.00  0.00    -0.271 OA
ATOM      8  S   UNL d   1      -3.364   3.805   1.137  0.00  0.00    -0.136 SA
ATOM      9  C   UNL d   1      -4.944   4.479   0.539  0.00  0.00     0.115 C 
ENDROOT
BRANCH   5  10
ATOM     10  N   UNL d   1      -1.083   2.212   0.283  0.00  0.00    -0.345 N 
ATOM     11  C   UNL d   1       0.151   1.679   0.386  0.00  0.00     0.223 C 
ATOM     12  O   UNL d   1       0.287   0.477   0.475  0.00  0.00    -0.273 OA
ATOM     13  H   UNL d   1      -1.192   3.173   0.212  0.00  0.00     0.163 HD
BRANCH  11  14
ATOM     14  C   UNL d   1       1.362   2.576   0.384  0.00  0.00     0.148 C 
BRANCH  14  15
ATOM     15  C   UNL d   1       2.609   1.738   0.503  0.00  0.00    -0.009 A 
ATOM     16  S   UNL d   1       3.470   1.207   1.974  0.00  0.00    -0.106 SA
ATOM     17  C   UNL d   1       4.782   0.292   1.180  0.00  0.00     0.050 A 
ATOM     18  C   UNL d   1       4.481   0.451  -0.132  0.00  0.00     0.008 A 
ATOM     19  C   UNL d   1       3.363   1.187  -0.479  0.00  0.00     0.015 A 
ENDBRANCH  14  15
ENDBRANCH  11  14
ENDBRANCH   5  10
BRANCH   2  20
ATOM     20  C   UNL d   1      -5.461   2.367  -2.653  0.00  0.00     0.227 C 
ATOM     21  O   UNL d   1      -5.152   1.292  -3.126  0.00  0.00    -0.643 OA
ATOM     22  OXT UNL d   1      -6.315   3.174  -3.314  0.00  0.00    -0.643 OA
ENDBRANCH   2  20
BRANCH   1  23
ATOM     23  C   UNL d   1      -6.352   4.691  -1.567  0.00  0.00     0.216 C 
BRANCH  23  24
ATOM     24  O   UNL d   1      -6.795   5.828  -0.779  0.00  0.00    -0.317 OA
BRANCH  24  25
ATOM     25  C   UNL d   1      -7.630   6.694  -1.375  0.00  0.00     0.255 C 
ATOM     26  C   UNL d   1      -8.041   7.956  -0.661  0.00  0.00     0.126 C 
ATOM     27  O   UNL d   1      -8.051   6.462  -2.483  0.00  0.00    -0.266 OA
ENDBRANCH  24  25
ENDBRANCH  23  24
ENDBRANCH   1  23
TORSDOF 7
