REMARK  8 active torsions:
REMARK  status: ('A' for Active; 'I' for Inactive)
REMARK    1  A    between atoms: C_2  and  O_3 
REMARK    2  A    between atoms: O_3  and  C_4 
REMARK    3  A    between atoms: C_4  and  C_6 
REMARK    4  A    between atoms: C_7  and  C_9 
REMARK    5  A    between atoms: C_10  and  C_11 
REMARK    6  A    between atoms: C_12  and  C_14 
REMARK    7  A    between atoms: C_15  and  C_16 
REMARK    8  A    between atoms: C_19  and  O_24 
ROOT
ATOM      1  C   UNL d   1       1.971   1.839   3.908  0.00  0.00     0.007 C 
ATOM      2  C   UNL d   1       3.320   1.677   4.029  0.00  0.00    -0.062 C 
ATOM      3  C   UNL d   1       4.133   1.221   2.845  0.00  0.00     0.048 C 
ENDROOT
BRANCH   2   4
ATOM      4  C   UNL d   1       3.952   1.937   5.259  0.00  0.00     0.007 C 
ATOM      5  C   UNL d   1       5.293   1.776   5.379  0.00  0.00     0.013 C 
BRANCH   5   6
ATOM      6  C   UNL d   1       5.953   2.047   6.662  0.00  0.00    -0.024 A 
ATOM      7  C   UNL d   1       6.828   1.103   7.216  0.00  0.00    -0.043 A 
ATOM      8  C   UNL d   1       7.444   1.363   8.420  0.00  0.00    -0.022 A 
ATOM      9  C   UNL d   1       7.094  -0.193   6.495  0.00  0.00     0.049 C 
ATOM     10  C   UNL d   1       7.199   2.558   9.085  0.00  0.00     0.075 A 
ATOM     11  C   UNL d   1       8.385   0.349   9.016  0.00  0.00     0.052 C 
ATOM     12  C   UNL d   1       6.332   3.498   8.540  0.00  0.00     0.044 A 
ATOM     13  C   UNL d   1       5.715   3.252   7.335  0.00  0.00    -0.049 A 
ATOM     14  C   UNL d   1       4.780   4.276   6.742  0.00  0.00     0.049 C 
BRANCH  10  15
ATOM     15  O   UNL d   1       7.809   2.809  10.272  0.00  0.00    -0.355 OA
ATOM     16  C   UNL d   1       7.514   4.056  10.903  0.00  0.00     0.210 C 
ENDBRANCH  10  15
ENDBRANCH   5   6
ENDBRANCH   2   4
BRANCH   1  17
ATOM     17  C   UNL d   1       1.340   1.581   2.682  0.00  0.00     0.001 C 
ATOM     18  C   UNL d   1      -0.011   1.742   2.561  0.00  0.00     0.007 C 
BRANCH  18  19
ATOM     19  C   UNL d   1      -0.626   1.589   1.310  0.00  0.00    -0.056 C 
ATOM     20  C   UNL d   1      -1.957   1.853   1.168  0.00  0.00     0.088 C 
ATOM     21  C   UNL d   1       0.183   1.134   0.123  0.00  0.00     0.048 C 
BRANCH  20  22
ATOM     22  C   UNL d   1      -2.601   1.587  -0.056  0.00  0.00     0.283 C 
ATOM     23  O   UNL d   1      -1.997   1.027  -0.953  0.00  0.00    -0.260 OA
BRANCH  22  24
ATOM     24  O   UNL d   1      -3.889   1.952  -0.235  0.00  0.00    -0.319 OA
BRANCH  24  25
ATOM     25  C   UNL d   1      -4.479   1.651  -1.502  0.00  0.00     0.174 C 
ATOM     26  C   UNL d   1      -5.929   2.136  -1.517  0.00  0.00     0.034 C 
ENDBRANCH  24  25
ENDBRANCH  22  24
ENDBRANCH  20  22
ENDBRANCH  18  19
ENDBRANCH   1  17
TORSDOF 8
