REMARK  14 active torsions:
REMARK  status: ('A' for Active; 'I' for Inactive)
REMARK    1  A    between atoms: C_2  and  C_3 
REMARK    2  A    between atoms: C_3  and  O_57 
REMARK    3  A    between atoms: C_5  and  O_29 
REMARK    4  A    between atoms: C_11  and  O_12 
REMARK    5  A    between atoms: C_20  and  O_21 
REMARK    6  A    between atoms: C_24  and  C_25 
REMARK    7  A    between atoms: C_25  and  O_27 
REMARK    8  A    between atoms: O_29  and  C_30 
REMARK    9  A    between atoms: C_32  and  N_62 
REMARK   10  A    between atoms: C_33  and  O_37 
REMARK   11  A    between atoms: O_37  and  C_38 
REMARK   12  A    between atoms: C_40  and  O_54 
REMARK   13  A    between atoms: C_41  and  O_45 
REMARK   14  A    between atoms: O_45  and  C_46 
ROOT
ATOM      1  C   UNL d   1       2.344  -1.590   1.589  0.00  0.00     0.077 C 
ATOM      2  C   UNL d   1       1.050  -1.082   2.237  0.00  0.00     0.076 C 
ATOM      3  C   UNL d   1       0.671   0.244   1.580  0.00  0.00     0.163 C 
ATOM      4  C   UNL d   1       1.843   1.191   1.580  0.00  0.00     0.012 A 
ATOM      5  C   UNL d   1       3.137   0.768   1.779  0.00  0.00    -0.029 A 
ATOM      6  C   UNL d   1       4.184   1.688   1.761  0.00  0.00     0.025 A 
ATOM      7  C   UNL d   1       3.937   3.035   1.547  0.00  0.00     0.032 A 
ATOM      8  C   UNL d   1       2.615   3.475   1.347  0.00  0.00     0.063 A 
ATOM      9  C   UNL d   1       1.575   2.547   1.360  0.00  0.00     0.090 A 
ATOM     10  C   UNL d   1       2.347   4.908   1.118  0.00  0.00     0.199 C 
ATOM     11  O   UNL d   1       1.213   5.342   1.194  0.00  0.00    -0.286 OA
ATOM     12  C   UNL d   1       3.470   5.809   0.796  0.00  0.00     0.062 A 
ATOM     13  C   UNL d   1       4.795   5.372   0.994  0.00  0.00     0.032 A 
ATOM     14  C   UNL d   1       5.854   6.219   0.690  0.00  0.00     0.017 A 
ATOM     15  C   UNL d   1       5.604   7.489   0.192  0.00  0.00     0.004 A 
ATOM     16  C   UNL d   1       4.309   7.923  -0.004  0.00  0.00     0.037 A 
ATOM     17  C   UNL d   1       3.233   7.091   0.295  0.00  0.00     0.080 A 
ATOM     18  C   UNL d   1       5.045   4.015   1.525  0.00  0.00     0.194 C 
ATOM     19  O   UNL d   1       6.146   3.708   1.938  0.00  0.00    -0.287 OA
ATOM     20  C   UNL d   1       3.488  -0.677   2.023  0.00  0.00     0.153 C 
ENDROOT
BRANCH   3  21
ATOM     21  O   UNL d   1       0.261   0.001   0.233  0.00  0.00    -0.351 OA
BRANCH  21  22
ATOM     22  C   UNL d   1      -1.106   0.327  -0.026  0.00  0.00     0.263 C 
ATOM     23  O   UNL d   1      -1.245   1.745  -0.136  0.00  0.00    -0.354 OA
ATOM     24  C   UNL d   1      -2.585   2.183  -0.371  0.00  0.00     0.151 C 
ATOM     25  C   UNL d   1      -3.087   1.599  -1.694  0.00  0.00     0.184 C 
ATOM     26  C   UNL d   1      -2.618   3.711  -0.442  0.00  0.00     0.042 C 
ATOM     27  C   UNL d   1      -2.995   0.071  -1.637  0.00  0.00     0.223 C 
ATOM     28  C   UNL d   1      -1.548  -0.331  -1.336  0.00  0.00     0.096 C 
BRANCH  25  29
ATOM     29  O   UNL d   1      -2.280   2.088  -2.768  0.00  0.00    -0.351 OA
BRANCH  29  30
ATOM     30  C   UNL d   1      -3.029   2.557  -3.891  0.00  0.00     0.263 C 
ATOM     31  O   UNL d   1      -3.825   3.677  -3.499  0.00  0.00    -0.354 OA
ATOM     32  C   UNL d   1      -4.637   4.211  -4.546  0.00  0.00     0.152 C 
ATOM     33  C   UNL d   1      -3.740   4.701  -5.686  0.00  0.00     0.182 C 
ATOM     34  C   UNL d   1      -5.461   5.382  -4.006  0.00  0.00     0.042 C 
ATOM     35  C   UNL d   1      -2.876   3.537  -6.181  0.00  0.00     0.154 C 
ATOM     36  C   UNL d   1      -2.068   2.980  -5.005  0.00  0.00     0.095 C 
BRANCH  33  37
ATOM     37  O   UNL d   1      -2.899   5.755  -5.214  0.00  0.00    -0.351 OA
BRANCH  37  38
ATOM     38  C   UNL d   1      -2.696   6.805  -6.162  0.00  0.00     0.261 C 
ATOM     39  O   UNL d   1      -3.956   7.378  -6.514  0.00  0.00    -0.349 OA
ATOM     40  C   UNL d   1      -3.879   8.369  -7.544  0.00  0.00     0.190 C 
ATOM     41  C   UNL d   1      -2.897   9.435  -7.107  0.00  0.00     0.155 C 
ATOM     42  C   UNL d   1      -5.258   8.996  -7.760  0.00  0.00     0.048 C 
ATOM     43  C   UNL d   1      -1.550   8.982  -6.584  0.00  0.00     0.086 C 
ATOM     44  O   UNL d   1      -3.178  10.607  -7.174  0.00  0.00    -0.295 OA
ATOM     45  C   UNL d   1      -1.792   7.877  -5.547  0.00  0.00     0.068 C 
ENDBRANCH  37  38
ENDBRANCH  33  37
BRANCH  35  46
ATOM     46  O   UNL d   1      -1.983   4.002  -7.196  0.00  0.00    -0.393 OA
ATOM     47  H   UNL d   1      -1.405   3.316  -7.555  0.00  0.00     0.210 HD
ENDBRANCH  35  46
ENDBRANCH  29  30
ENDBRANCH  25  29
BRANCH  27  48
ATOM     48  N   UNL d   1      -3.390  -0.480  -2.951  0.00  0.00    -0.072 N 
ATOM     49  C   UNL d   1      -3.007  -1.905  -3.036  0.00  0.00     0.269 C 
ATOM     50  C   UNL d   1      -4.848  -0.337  -3.141  0.00  0.00     0.269 C 
ATOM     51  H   UNL d   1      -2.904   0.041  -3.690  0.00  0.00     0.279 HD
ENDBRANCH  27  48
ENDBRANCH  21  22
ENDBRANCH   3  21
BRANCH   1  52
ATOM     52  C   UNL d   1       2.623  -3.022   2.048  0.00  0.00     0.034 C 
ATOM     53  C   UNL d   1       1.460  -3.926   1.634  0.00  0.00     0.008 C 
ENDBRANCH   1  52
BRANCH   1  54
ATOM     54  O   UNL d   1       2.215  -1.556   0.166  0.00  0.00    -0.389 OA
ATOM     55  H   UNL d   1       1.493  -2.102  -0.176  0.00  0.00     0.210 HD
ENDBRANCH   1  54
BRANCH   9  56
ATOM     56  O   UNL d   1       0.299   2.959   1.165  0.00  0.00    -0.359 OA
ATOM     57  H   UNL d   1      -0.166   3.201   1.978  0.00  0.00     0.217 HD
ENDBRANCH   9  56
BRANCH  20  58
ATOM     58  C   UNL d   1       4.727  -1.026   1.239  0.00  0.00     0.270 C 
ATOM     59  O   UNL d   1       4.835  -0.669   0.089  0.00  0.00    -0.264 OA
BRANCH  58  60
ATOM     60  O   UNL d   1       5.711  -1.733   1.817  0.00  0.00    -0.326 OA
ATOM     61  C   UNL d   1       6.874  -2.032   1.002  0.00  0.00     0.213 C 
ENDBRANCH  58  60
ENDBRANCH  20  58
BRANCH  17  62
ATOM     62  O   UNL d   1       1.963   7.523   0.101  0.00  0.00    -0.360 OA
ATOM     63  H   UNL d   1       1.589   7.271  -0.755  0.00  0.00     0.217 HD
ENDBRANCH  17  62
TORSDOF 14
