REMARK  5 active torsions:
REMARK  status: ('A' for Active; 'I' for Inactive)
REMARK    1  A    between atoms: C_13  and  O_26 
REMARK    2  A    between atoms: C_19  and  C_20 
REMARK    3  A    between atoms: C_19  and  O_24 
REMARK    4  A    between atoms: C_20  and  C_22 
REMARK    5  A    between atoms: C_22  and  O_23 
ROOT
ATOM      1  C   UNL d   1       1.359   2.900  -1.368  0.00  0.00     0.023 C 
ATOM      2  C   UNL d   1       1.529   2.221  -0.007  0.00  0.00     0.019 C 
ATOM      3  C   UNL d   1       2.925   1.628   0.050  0.00  0.00     0.025 C 
ATOM      4  C   UNL d   1       2.998   0.285  -0.677  0.00  0.00     0.084 C 
ATOM      5  C   UNL d   1       1.985  -0.638  -0.029  0.00  0.00     0.149 C 
ATOM      6  O   UNL d   1       2.279  -1.760   0.327  0.00  0.00    -0.293 OA
ATOM      7  C   UNL d   1       0.630  -0.102   0.147  0.00  0.00     0.053 C 
ATOM      8  C   UNL d   1       0.431   1.215   0.148  0.00  0.00    -0.065 C 
ATOM      9  C   UNL d   1      -0.994   1.718   0.294  0.00  0.00     0.036 C 
ATOM     10  C   UNL d   1      -1.023   2.783   1.391  0.00  0.00     0.013 C 
ATOM     11  C   UNL d   1      -0.013   3.887   1.056  0.00  0.00     0.034 C 
ATOM     12  C   UNL d   1       1.399   3.312   1.065  0.00  0.00     0.144 C 
ATOM     13  C   UNL d   1       2.396   4.429   0.731  0.00  0.00     0.160 C 
ATOM     14  C   UNL d   1       2.316   5.498   1.819  0.00  0.00     0.048 C 
ATOM     15  C   UNL d   1       0.924   6.081   1.903  0.00  0.00     0.001 C 
ATOM     16  C   UNL d   1      -0.162   5.007   2.091  0.00  0.00     0.005 C 
ATOM     17  C   UNL d   1      -1.450   5.794   1.704  0.00  0.00     0.009 C 
ATOM     18  C   UNL d   1      -1.008   6.655   0.501  0.00  0.00     0.047 C 
ATOM     19  C   UNL d   1       0.519   6.832   0.627  0.00  0.00     0.128 C 
ATOM     20  C   UNL d   1       0.877   7.049   3.087  0.00  0.00     0.019 C 
ATOM     21  F   UNL d   1       1.680   2.770   2.324  0.00  0.00    -0.239 F 
ENDROOT
BRANCH  19  22
ATOM     22  C   UNL d   1       0.865   8.293   0.751  0.00  0.00     0.184 C 
ATOM     23  O   UNL d   1       0.049   9.072   1.185  0.00  0.00    -0.292 OA
BRANCH  22  24
ATOM     24  C   UNL d   1       2.227   8.784   0.335  0.00  0.00     0.245 C 
BRANCH  24  25
ATOM     25  O   UNL d   1       2.311  10.194   0.546  0.00  0.00    -0.393 OA
ATOM     26  H   UNL d   1       3.163  10.579   0.299  0.00  0.00     0.209 HD
ENDBRANCH  24  25
ENDBRANCH  22  24
ENDBRANCH  19  22
BRANCH  19  27
ATOM     27  O   UNL d   1       1.177   6.265  -0.508  0.00  0.00    -0.381 OA
ATOM     28  H   UNL d   1       0.935   6.677  -1.348  0.00  0.00     0.211 HD
ENDBRANCH  19  27
BRANCH  13  29
ATOM     29  O   UNL d   1       3.719   3.892   0.682  0.00  0.00    -0.392 OA
ATOM     30  H   UNL d   1       4.401   4.546   0.475  0.00  0.00     0.210 HD
ENDBRANCH  13  29
TORSDOF 5
