REMARK  2 active torsions:
REMARK  status: ('A' for Active; 'I' for Inactive)
REMARK    1  A    between atoms: C_10  and  O_11 
REMARK    2  A    between atoms: C_18  and  O_20 
ROOT
ATOM      1  C   UNL d   1      -2.888   0.678   0.444  0.00  0.00     0.018 C 
ATOM      2  C   UNL d   1      -2.151   1.995   0.685  0.00  0.00    -0.014 C 
ATOM      3  C   UNL d   1      -3.037   2.976   1.402  0.00  0.00     0.012 C 
ATOM      4  C   UNL d   1      -4.080   3.549   0.418  0.00  0.00     0.007 C 
ATOM      5  C   UNL d   1      -3.375   4.250  -0.730  0.00  0.00     0.003 C 
ATOM      6  C   UNL d   1      -2.560   3.204  -1.531  0.00  0.00    -0.001 C 
ATOM      7  C   UNL d   1      -1.554   2.619  -0.590  0.00  0.00     0.001 C 
ATOM      8  C   UNL d   1      -0.630   1.494  -1.071  0.00  0.00     0.008 C 
ATOM      9  C   UNL d   1       0.023   1.018   0.263  0.00  0.00     0.033 C 
ATOM     10  C   UNL d   1      -0.840   1.613   1.409  0.00  0.00     0.126 C 
ATOM     11  C   UNL d   1      -3.536   2.200  -2.130  0.00  0.00     0.033 C 
ATOM     12  C   UNL d   1      -4.572   2.933  -2.945  0.00  0.00    -0.023 C 
ATOM     13  C   UNL d   1      -4.886   4.170  -2.737  0.00  0.00    -0.072 C 
ATOM     14  C   UNL d   1      -4.269   5.030  -1.662  0.00  0.00    -0.017 C 
ATOM     15  C   UNL d   1      -3.479   6.132  -2.380  0.00  0.00     0.016 C 
ATOM     16  C   UNL d   1      -3.740   6.079  -3.882  0.00  0.00     0.033 C 
ATOM     17  C   UNL d   1      -5.229   6.099  -4.210  0.00  0.00     0.122 C 
ATOM     18  C   UNL d   1      -5.904   4.842  -3.644  0.00  0.00     0.066 C 
ATOM     19  C   UNL d   1      -5.388   5.711  -0.873  0.00  0.00     0.020 C 
ENDROOT
BRANCH  10  20
ATOM     20  O   UNL d   1      -1.112   0.628   2.399  0.00  0.00    -0.395 OA
ATOM     21  H   UNL d   1      -0.321   0.276   2.831  0.00  0.00     0.210 HD
ENDBRANCH  10  20
BRANCH  17  22
ATOM     22  O   UNL d   1      -5.834   7.266  -3.650  0.00  0.00    -0.395 OA
ATOM     23  H   UNL d   1      -6.783   7.339  -3.823  0.00  0.00     0.210 HD
ENDBRANCH  17  22
TORSDOF 2
