REMARK  6 active torsions:
REMARK  status: ('A' for Active; 'I' for Inactive)
REMARK    1  A    between atoms: CA_3  and  C_21 
REMARK    2  A    between atoms: CA_7  and  N_10 
REMARK       I    between atoms: N_10  and  C_11 
REMARK    3  A    between atoms: C_11  and  CA_13 
REMARK    4  A    between atoms: CA_13  and  C_14 
REMARK    5  A    between atoms: CA_13  and  N_28 
REMARK    6  A    between atoms: C_17  and  O_20 
ROOT
ATOM      1  N   UNL d   1       4.622   5.632  -0.775  0.00  0.00    -0.344 N 
ATOM      2  C   UNL d   1       4.975   4.803   0.227  0.00  0.00     0.253 C 
ATOM      3  O   UNL d   1       5.189   5.248   1.335  0.00  0.00    -0.271 OA
ATOM      4  H   UNL d   1       4.450   5.277  -1.661  0.00  0.00     0.163 HD
ENDROOT
BRANCH   1   5
ATOM      5  CA  UNL d   1       4.498   7.071  -0.526  0.00  0.00     0.199 C 
ATOM      6  C   UNL d   1       4.694   7.931  -1.776  0.00  0.00     0.160 C 
ATOM      7  N   UNL d   1       3.332   8.463  -1.531  0.00  0.00    -0.219 NA
ATOM      8  S   UNL d   1       5.773   9.396  -1.517  0.00  0.00    -0.135 SA
ATOM      9  CA  UNL d   1       3.257   9.879  -1.161  0.00  0.00     0.186 C 
ATOM     10  C   UNL d   1       3.067   7.568  -0.528  0.00  0.00     0.227 C 
ATOM     11  C   UNL d   1       4.463  10.685  -1.720  0.00  0.00     0.029 C 
ATOM     12  C   UNL d   1       4.259  11.053  -3.191  0.00  0.00     0.029 C 
ATOM     13  C   UNL d   1       4.753  11.924  -0.871  0.00  0.00     0.029 C 
ATOM     14  O   UNL d   1       2.075   7.286   0.109  0.00  0.00    -0.277 OA
BRANCH   9  15
ATOM     15  C   UNL d   1       1.980  10.463  -1.708  0.00  0.00     0.193 C 
ATOM     16  O   UNL d   1       1.389   9.898  -2.597  0.00  0.00    -0.647 OA
ATOM     17  OXT UNL d   1       1.499  11.612  -1.207  0.00  0.00    -0.647 OA
ENDBRANCH   9  15
ENDBRANCH   1   5
BRANCH   2  18
ATOM     18  CA  UNL d   1       5.103   3.323  -0.029  0.00  0.00     0.307 C 
BRANCH  18  19
ATOM     19  C   UNL d   1       3.735   2.692  -0.019  0.00  0.00    -0.019 A 
ATOM     20  C   UNL d   1       3.119   2.397   1.183  0.00  0.00     0.012 A 
ATOM     21  C   UNL d   1       1.863   1.822   1.195  0.00  0.00     0.037 A 
ATOM     22  C   UNL d   1       1.223   1.532  -0.001  0.00  0.00     0.065 A 
ATOM     23  C   UNL d   1       1.842   1.830  -1.207  0.00  0.00     0.037 A 
ATOM     24  C   UNL d   1       3.096   2.409  -1.213  0.00  0.00     0.012 A 
BRANCH  22  25
ATOM     25  O   UNL d   1      -0.011   0.963   0.007  0.00  0.00    -0.361 OA
ATOM     26  H   UNL d   1       0.002  -0.004   0.002  0.00  0.00     0.217 HD
ENDBRANCH  22  25
ENDBRANCH  18  19
BRANCH  18  27
ATOM     27  N   UNL d   1       5.929   2.690   1.014  0.00  0.00    -0.062 N 
ATOM     28  H1  UNL d   1       6.872   3.075   0.993  0.00  0.00     0.275 HD
ATOM     29  H2  UNL d   1       5.518   2.851   1.931  0.00  0.00     0.275 HD
ATOM     30  H3  UNL d   1       5.976   1.680   0.840  0.00  0.00     0.275 HD
ENDBRANCH  18  27
ENDBRANCH   2  18
TORSDOF 6
