REMARK  9 active torsions:
REMARK  status: ('A' for Active; 'I' for Inactive)
REMARK    1  A    between atoms: C_2  and  C_3 
REMARK    2  A    between atoms: C_3  and  O_5 
REMARK    3  A    between atoms: O_5  and  C_6 
REMARK    4  A    between atoms: C_6  and  C_7 
REMARK    5  A    between atoms: C_7  and  C_9 
REMARK    6  A    between atoms: C_9  and  O_32 
REMARK    7  A    between atoms: C_15  and  O_29 
REMARK    8  A    between atoms: O_32  and  C_33 
REMARK    9  A    between atoms: C_33  and  C_35 
ROOT
ATOM      1  C   UNL d   1       3.273   1.813   1.276  0.00  0.00     0.144 C 
ATOM      2  C   UNL d   1       3.949   0.617   0.580  0.00  0.00     0.026 C 
ATOM      3  C   UNL d   1       2.850  -0.444   0.378  0.00  0.00     0.013 C 
ATOM      4  C   UNL d   1       1.812  -0.106   1.465  0.00  0.00     0.005 C 
ATOM      5  C   UNL d   1       1.777   1.433   1.441  0.00  0.00     0.002 C 
ATOM      6  C   UNL d   1       1.046   1.953   0.215  0.00  0.00     0.048 C 
ATOM      7  C   UNL d   1      -0.341   1.327   0.093  0.00  0.00     0.160 C 
ATOM      8  C   UNL d   1      -0.176  -0.188  -0.065  0.00  0.00     0.147 C 
ATOM      9  C   UNL d   1       0.468  -0.740   1.201  0.00  0.00     0.035 C 
ATOM     10  C   UNL d   1       0.611  -2.260   1.044  0.00  0.00     0.013 C 
ATOM     11  C   UNL d   1      -0.784  -2.874   1.171  0.00  0.00     0.036 C 
ATOM     12  C   UNL d   1      -1.756  -2.158   0.279  0.00  0.00    -0.061 C 
ATOM     13  C   UNL d   1      -2.965  -2.725   0.059  0.00  0.00     0.058 C 
ATOM     14  C   UNL d   1      -3.884  -1.921  -0.792  0.00  0.00     0.172 C 
ATOM     15  O   UNL d   1      -4.579  -2.418  -1.658  0.00  0.00    -0.289 OA
ATOM     16  C   UNL d   1      -3.885  -0.460  -0.503  0.00  0.00     0.052 C 
ATOM     17  C   UNL d   1      -2.666   0.079  -0.280  0.00  0.00    -0.006 C 
ATOM     18  C   UNL d   1      -1.490  -0.849  -0.366  0.00  0.00     0.036 C 
ATOM     19  C   UNL d   1      -1.423  -1.181  -1.858  0.00  0.00     0.028 C 
ATOM     20  F   UNL d   1       0.691  -0.425  -1.137  0.00  0.00    -0.238 F 
ATOM     21  C   UNL d   1       1.184   2.006   2.729  0.00  0.00     0.019 C 
ATOM     22  C   UNL d   1       5.076   0.068   1.457  0.00  0.00     0.013 C 
ENDROOT
BRANCH   1  23
ATOM     23  C   UNL d   1       3.900   2.046   2.627  0.00  0.00     0.187 C 
ATOM     24  O   UNL d   1       3.825   1.197   3.482  0.00  0.00    -0.292 OA
BRANCH  23  25
ATOM     25  C   UNL d   1       4.618   3.340   2.911  0.00  0.00     0.260 C 
BRANCH  25  26
ATOM     26  O   UNL d   1       5.015   3.377   4.307  0.00  0.00    -0.314 OA
BRANCH  26  27
ATOM     27  C   UNL d   1       5.671   4.471   4.726  0.00  0.00     0.258 C 
ATOM     28  O   UNL d   1       5.906   5.368   3.951  0.00  0.00    -0.265 OA
BRANCH  27  29
ATOM     29  C   UNL d   1       6.114   4.580   6.162  0.00  0.00     0.106 C 
ATOM     30  C   UNL d   1       6.834   5.914   6.373  0.00  0.00     0.015 C 
ENDBRANCH  27  29
ENDBRANCH  26  27
ENDBRANCH  25  26
ENDBRANCH  23  25
ENDBRANCH   1  23
BRANCH   1  31
ATOM     31  O   UNL d   1       3.398   3.004   0.456  0.00  0.00    -0.301 OA
BRANCH  31  32
ATOM     32  C   UNL d   1       4.639   3.374   0.103  0.00  0.00     0.259 C 
ATOM     33  O   UNL d   1       5.582   2.673   0.386  0.00  0.00    -0.265 OA
BRANCH  32  34
ATOM     34  C   UNL d   1       4.858   4.664  -0.645  0.00  0.00     0.106 C 
ATOM     35  C   UNL d   1       6.351   4.847  -0.922  0.00  0.00     0.015 C 
ENDBRANCH  32  34
ENDBRANCH  31  32
ENDBRANCH   1  31
BRANCH   7  36
ATOM     36  O   UNL d   1      -1.101   1.607   1.270  0.00  0.00    -0.392 OA
ATOM     37  H   UNL d   1      -1.243   2.550   1.431  0.00  0.00     0.210 HD
ENDBRANCH   7  36
TORSDOF 9
