REMARK  5 active torsions:
REMARK  status: ('A' for Active; 'I' for Inactive)
REMARK    1  A    between atoms: C_10  and  O_11 
REMARK    2  A    between atoms: O_11  and  C_12 
REMARK    3  A    between atoms: C_12  and  C_14 
REMARK    4  A    between atoms: C_14  and  C_15 
REMARK    5  A    between atoms: C_15  and  C_16 
ROOT
ATOM      1  C   UNL d   1       4.452   0.884   1.336  0.00  0.00     0.018 C 
ATOM      2  C   UNL d   1       3.487   1.886   0.699  0.00  0.00    -0.013 C 
ATOM      3  C   UNL d   1       2.963   2.818   1.769  0.00  0.00     0.012 C 
ATOM      4  C   UNL d   1       2.082   3.898   1.147  0.00  0.00     0.006 C 
ATOM      5  C   UNL d   1       2.918   4.716   0.151  0.00  0.00    -0.002 C 
ATOM      6  C   UNL d   1       3.420   3.813  -0.961  0.00  0.00    -0.005 C 
ATOM      7  C   UNL d   1       4.219   2.648  -0.415  0.00  0.00     0.001 C 
ATOM      8  C   UNL d   1       4.240   1.589  -1.558  0.00  0.00     0.008 C 
ATOM      9  C   UNL d   1       2.852   0.918  -1.465  0.00  0.00     0.034 C 
ATOM     10  C   UNL d   1       2.367   1.117  -0.015  0.00  0.00     0.140 C 
ATOM     11  C   UNL d   1       4.319   4.548  -1.953  0.00  0.00     0.010 C 
ATOM     12  C   UNL d   1       3.939   6.012  -2.118  0.00  0.00     0.035 C 
ATOM     13  C   UNL d   1       2.477   6.188  -1.792  0.00  0.00    -0.072 C 
ATOM     14  C   UNL d   1       1.631   6.656  -2.704  0.00  0.00     0.053 C 
ATOM     15  C   UNL d   1       0.210   6.817  -2.400  0.00  0.00     0.149 C 
ATOM     16  O   UNL d   1      -0.542   7.267  -3.239  0.00  0.00    -0.293 OA
ATOM     17  C   UNL d   1      -0.320   6.423  -1.044  0.00  0.00     0.084 C 
ATOM     18  C   UNL d   1       0.569   5.318  -0.465  0.00  0.00     0.017 C 
ATOM     19  C   UNL d   1       2.002   5.813  -0.406  0.00  0.00     0.019 C 
ENDROOT
BRANCH  10  20
ATOM     20  O   UNL d   1       1.139   1.891   0.001  0.00  0.00    -0.315 OA
BRANCH  20  21
ATOM     21  C   UNL d   1      -0.014   1.204   0.009  0.00  0.00     0.259 C 
ATOM     22  O   UNL d   1       0.002  -0.004   0.002  0.00  0.00    -0.265 OA
BRANCH  21  23
ATOM     23  C   UNL d   1      -1.329   1.940   0.019  0.00  0.00     0.116 C 
BRANCH  23  24
ATOM     24  C   UNL d   1      -2.479   0.930   0.019  0.00  0.00     0.048 C 
BRANCH  24  25
ATOM     25  C   UNL d   1      -3.794   1.665   0.029  0.00  0.00    -0.058 A 
ATOM     26  C   UNL d   1      -4.403   2.009  -1.163  0.00  0.00     0.007 A 
ATOM     27  C   UNL d   1      -5.609   2.684  -1.154  0.00  0.00     0.001 A 
ATOM     28  C   UNL d   1      -6.207   3.014   0.048  0.00  0.00     0.000 A 
ATOM     29  C   UNL d   1      -5.598   2.670   1.240  0.00  0.00     0.001 A 
ATOM     30  C   UNL d   1      -4.394   1.991   1.231  0.00  0.00     0.007 A 
ENDBRANCH  24  25
ENDBRANCH  23  24
ENDBRANCH  21  23
ENDBRANCH  20  21
ENDBRANCH  10  20
TORSDOF 5
