REMARK  2 active torsions:
REMARK  status: ('A' for Active; 'I' for Inactive)
REMARK    1  A    between atoms: C_2  and  N_3 
REMARK    2  A    between atoms: C_6  and  C_10 
ROOT
ATOM      1  N   UNL d   1      -1.137   1.940   0.018  0.00  0.00    -0.268 N 
ATOM      2  C   UNL d   1      -0.871   3.261   0.028  0.00  0.00     0.255 A 
ATOM      3  O   UNL d   1      -1.675   4.169   0.040  0.00  0.00    -0.270 OA
ATOM      4  C   UNL d   1       0.640   3.376   0.014  0.00  0.00     0.212 A 
ATOM      5  N   UNL d   1       1.094   1.974   0.002  0.00  0.00    -0.325 N 
ATOM      6  C   UNL d   1      -0.014   1.211   0.009  0.00  0.00     0.326 A 
ATOM      7  O   UNL d   1       0.002  -0.004   0.002  0.00  0.00    -0.247 OA
ATOM      8  H   UNL d   1       2.012   1.662  -0.009  0.00  0.00     0.165 HD
ENDROOT
BRANCH   4   9
ATOM      9  C   UNL d   1       1.130   4.081   1.253  0.00  0.00    -0.026 A 
ATOM     10  C   UNL d   1       1.552   5.395   1.178  0.00  0.00     0.010 A 
ATOM     11  C   UNL d   1       2.001   6.042   2.315  0.00  0.00     0.001 A 
ATOM     12  C   UNL d   1       2.027   5.375   3.525  0.00  0.00     0.000 A 
ATOM     13  C   UNL d   1       1.605   4.061   3.599  0.00  0.00     0.001 A 
ATOM     14  C   UNL d   1       1.151   3.415   2.464  0.00  0.00     0.010 A 
ENDBRANCH   4   9
BRANCH   1  15
ATOM     15  C   UNL d   1      -2.487   1.371   0.020  0.00  0.00     0.132 C 
ATOM     16  C   UNL d   1      -2.951   1.165   1.463  0.00  0.00     0.027 C 
ENDBRANCH   1  15
TORSDOF 2
