REMARK  9 active torsions:
REMARK  status: ('A' for Active; 'I' for Inactive)
REMARK    1  A    between atoms: O_2  and  C_3 
REMARK    2  A    between atoms: C_5  and  C_13 
REMARK    3  A    between atoms: C_7  and  O_11 
REMARK    4  A    between atoms: C_8  and  O_9 
REMARK    5  A    between atoms: C_13  and  O_15 
REMARK    6  A    between atoms: O_15  and  C_16 
REMARK    7  A    between atoms: C_35  and  C_39 
REMARK    8  A    between atoms: C_36  and  O_37 
REMARK    9  A    between atoms: C_39  and  O_41 
ROOT
ATOM      1  C   UNL d   1      -3.500   3.632  -3.713  0.00  0.00     0.162 C 
ATOM      2  C   UNL d   1      -2.437   4.104  -2.719  0.00  0.00     0.042 C 
ATOM      3  C   UNL d   1      -3.021   4.104  -1.305  0.00  0.00     0.019 C 
ATOM      4  C   UNL d   1      -1.940   4.553  -0.316  0.00  0.00     0.240 C 
ATOM      5  C   UNL d   1       0.333   4.090   0.409  0.00  0.00     0.240 C 
ATOM      6  C   UNL d   1       1.590   3.308   0.004  0.00  0.00     0.069 C 
ATOM      7  C   UNL d   1       1.251   1.839  -0.000  0.00  0.00    -0.019 A 
ATOM      8  C   UNL d   1       2.135   0.694  -0.013  0.00  0.00    -0.001 A 
ATOM      9  C   UNL d   1       3.528   0.569  -0.025  0.00  0.00     0.014 A 
ATOM     10  C   UNL d   1       4.037  -0.706  -0.035  0.00  0.00     0.001 A 
ATOM     11  C   UNL d   1       3.220  -1.825  -0.034  0.00  0.00     0.002 A 
ATOM     12  C   UNL d   1       1.839  -1.731  -0.022  0.00  0.00     0.030 A 
ATOM     13  C   UNL d   1       1.293  -0.449  -0.011  0.00  0.00     0.043 A 
ATOM     14  N   UNL d   1       0.002  -0.004   0.002  0.00  0.00    -0.357 N 
ATOM     15  H   UNL d   1      -0.784  -0.573   0.006  0.00  0.00     0.166 HD
ATOM     16  C   UNL d   1      -0.017   1.364   0.009  0.00  0.00     0.048 A 
ATOM     17  C   UNL d   1      -1.226   2.264   0.032  0.00  0.00     0.238 C 
ATOM     18  C   UNL d   1      -2.288   1.743  -0.944  0.00  0.00     0.045 C 
ATOM     19  C   UNL d   1      -3.487   2.694  -0.935  0.00  0.00     0.010 C 
ATOM     20  C   UNL d   1      -4.532   2.210  -1.940  0.00  0.00     0.121 C 
ATOM     21  C   UNL d   1      -3.940   2.212  -3.350  0.00  0.00     0.164 C 
ATOM     22  N   UNL d   1      -0.805   3.611  -0.414  0.00  0.00    -0.061 N 
ATOM     23  H   UNL d   1      -0.503   3.556  -1.394  0.00  0.00     0.280 HD
ENDROOT
BRANCH   1  24
ATOM     24  O   UNL d   1      -2.945   3.640  -5.055  0.00  0.00    -0.309 OA
BRANCH  24  25
ATOM     25  C   UNL d   1      -3.079   4.777  -5.766  0.00  0.00     0.294 C 
ATOM     26  O   UNL d   1      -3.643   5.736  -5.277  0.00  0.00    -0.259 OA
BRANCH  25  27
ATOM     27  C   UNL d   1      -2.540   4.858  -7.136  0.00  0.00     0.045 A 
ATOM     28  C   UNL d   1      -2.677   6.037  -7.874  0.00  0.00     0.057 A 
ATOM     29  C   UNL d   1      -2.171   6.110  -9.158  0.00  0.00     0.105 A 
ATOM     30  C   UNL d   1      -1.524   5.010  -9.716  0.00  0.00     0.135 A 
ATOM     31  C   UNL d   1      -1.385   3.835  -8.983  0.00  0.00     0.105 A 
ATOM     32  C   UNL d   1      -1.885   3.758  -7.697  0.00  0.00     0.057 A 
BRANCH  29  33
ATOM     33  O   UNL d   1      -2.305   7.257  -9.877  0.00  0.00    -0.353 OA
ATOM     34  C   UNL d   1      -2.979   8.345  -9.242  0.00  0.00     0.210 C 
ENDBRANCH  29  33
BRANCH  30  35
ATOM     35  O   UNL d   1      -1.028   5.085 -10.979  0.00  0.00    -0.351 OA
ATOM     36  C   UNL d   1       0.320   5.539 -11.120  0.00  0.00     0.210 C 
ENDBRANCH  30  35
BRANCH  31  37
ATOM     37  O   UNL d   1      -0.753   2.763  -9.532  0.00  0.00    -0.353 OA
ATOM     38  C   UNL d   1      -0.646   1.589  -8.723  0.00  0.00     0.210 C 
ENDBRANCH  31  37
ENDBRANCH  25  27
ENDBRANCH  24  25
ENDBRANCH   1  24
BRANCH  21  39
ATOM     39  O   UNL d   1      -2.811   1.337  -3.395  0.00  0.00    -0.387 OA
ATOM     40  C   UNL d   1      -2.593   0.734  -4.673  0.00  0.00     0.202 C 
ENDBRANCH  21  39
BRANCH  20  41
ATOM     41  C   UNL d   1      -4.964   0.812  -1.579  0.00  0.00     0.265 C 
ATOM     42  O   UNL d   1      -4.477   0.257  -0.623  0.00  0.00    -0.265 OA
BRANCH  41  43
ATOM     43  O   UNL d   1      -5.890   0.184  -2.321  0.00  0.00    -0.326 OA
ATOM     44  C   UNL d   1      -6.258  -1.161  -1.915  0.00  0.00     0.213 C 
ENDBRANCH  41  43
ENDBRANCH  20  41
TORSDOF 9
