REMARK  5 active torsions:
REMARK  status: ('A' for Active; 'I' for Inactive)
REMARK    1  A    between atoms: C_2  and  C_3 
REMARK    2  A    between atoms: C_2  and  C_10 
REMARK    3  A    between atoms: C_11  and  C_19 
REMARK    4  A    between atoms: C_19  and  C_20 
REMARK    5  A    between atoms: C_20  and  N_23 
ROOT
ATOM      1  C   UNL d   1      -0.623   1.229   1.378  0.00  0.00    -0.035 A 
ATOM      2  C   UNL d   1      -0.989   0.216   2.144  0.00  0.00    -0.066 A 
ATOM      3  C   UNL d   1      -1.551   0.773   3.431  0.00  0.00     0.074 A 
ATOM      4  C   UNL d   1      -1.456   2.273   3.295  0.00  0.00    -0.043 A 
ATOM      5  C   UNL d   1      -0.885   2.518   2.044  0.00  0.00    -0.022 A 
ATOM      6  C   UNL d   1      -0.679   3.838   1.637  0.00  0.00     0.012 A 
ATOM      7  C   UNL d   1      -1.028   4.879   2.473  0.00  0.00     0.001 A 
ATOM      8  C   UNL d   1      -1.587   4.623   3.712  0.00  0.00     0.001 A 
ATOM      9  C   UNL d   1      -1.801   3.317   4.121  0.00  0.00     0.008 A 
ENDROOT
BRANCH   1  10
ATOM     10  C   UNL d   1      -0.013   1.086   0.008  0.00  0.00     0.065 C 
ATOM     11  C   UNL d   1      -0.895   1.797  -1.020  0.00  0.00     0.021 C 
BRANCH  10  12
ATOM     12  C   UNL d   1       1.362   1.703   0.003  0.00  0.00     0.017 A 
ATOM     13  N   UNL d   1       2.361   1.074   0.589  0.00  0.00    -0.369 N 
ATOM     14  C   UNL d   1       3.581   1.576   0.610  0.00  0.00     0.088 A 
ATOM     15  HN  UNL d   1       2.187   0.175   1.038  1.00  0.00     0.165 HD
ATOM     16  C   UNL d   1       3.855   2.791   0.012  0.00  0.00     0.017 A 
ATOM     17  C   UNL d   1       2.829   3.483  -0.614  0.00  0.00     0.003 A 
ATOM     18  C   UNL d   1       1.562   2.921  -0.620  0.00  0.00     0.025 A 
ENDBRANCH  10  12
ENDBRANCH   1  10
BRANCH   2  19
ATOM     19  C   UNL d   1      -0.865  -1.245   1.794  0.00  0.00     0.062 C 
BRANCH  19  20
ATOM     20  C   UNL d   1       0.438  -1.800   2.373  0.00  0.00     0.238 C 
BRANCH  20  21
ATOM     21  N   UNL d   1       0.534  -3.236   2.040  0.00  0.00    -0.079 N 
ATOM     22  C   UNL d   1       0.714  -3.406   0.583  0.00  0.00     0.269 C 
ATOM     23  C   UNL d   1       1.668  -3.848   2.764  0.00  0.00     0.269 C 
ATOM     24  H   UNL d   1      -0.335  -3.704   2.325  0.00  0.00     0.278 HD
ENDBRANCH  20  21
ENDBRANCH  19  20
ENDBRANCH   2  19
TORSDOF 5
