REMARK  8 active torsions:
REMARK  status: ('A' for Active; 'I' for Inactive)
REMARK    1  A    between atoms: C_2  and  C_3 
REMARK    2  A    between atoms: C_3  and  C_4 
REMARK    3  A    between atoms: C_4  and  C_5 
REMARK    4  A    between atoms: C_5  and  C_6 
REMARK    5  A    between atoms: C_6  and  C_7 
REMARK    6  A    between atoms: C_7  and  O_9 
REMARK    7  A    between atoms: O_9  and  C_10 
REMARK    8  A    between atoms: C_25  and  O_27 
ROOT
ATOM      1  C   UNL d   1      -2.248   1.102   0.251  0.00  0.00     0.140 C 
ATOM      2  C   UNL d   1      -2.492   0.861  -1.261  0.00  0.00     0.034 C 
ATOM      3  C   UNL d   1      -4.002   1.140  -1.514  0.00  0.00     0.008 C 
ATOM      4  C   UNL d   1      -4.590   1.065  -0.102  0.00  0.00     0.001 C 
ATOM      5  C   UNL d   1      -3.528   1.817   0.725  0.00  0.00    -0.013 C 
ATOM      6  C   UNL d   1      -3.845   1.671   2.195  0.00  0.00     0.013 C 
ATOM      7  C   UNL d   1      -5.251   2.223   2.457  0.00  0.00     0.010 C 
ATOM      8  C   UNL d   1      -6.306   1.497   1.627  0.00  0.00     0.023 C 
ATOM      9  C   UNL d   1      -5.986   1.541   0.132  0.00  0.00    -0.001 C 
ATOM     10  C   UNL d   1      -6.318   2.916  -0.430  0.00  0.00     0.010 C 
ATOM     11  C   UNL d   1      -7.845   3.064  -0.427  0.00  0.00     0.039 C 
ATOM     12  C   UNL d   1      -8.371   2.811   0.963  0.00  0.00    -0.049 A 
ATOM     13  C   UNL d   1      -7.662   2.094   1.901  0.00  0.00    -0.047 A 
ATOM     14  C   UNL d   1      -8.204   1.891   3.166  0.00  0.00     0.011 A 
ATOM     15  C   UNL d   1      -9.442   2.401   3.490  0.00  0.00     0.037 A 
ATOM     16  C   UNL d   1     -10.156   3.127   2.547  0.00  0.00     0.066 A 
ATOM     17  C   UNL d   1      -9.617   3.329   1.287  0.00  0.00     0.044 A 
ATOM     18  C   UNL d   1      -3.400   3.289   0.343  0.00  0.00     0.018 C 
ENDROOT
BRANCH   1  19
ATOM     19  O   UNL d   1      -1.101   1.964   0.451  0.00  0.00    -0.315 OA
BRANCH  19  20
ATOM     20  C   UNL d   1       0.081   1.366   0.666  0.00  0.00     0.259 C 
ATOM     21  O   UNL d   1       0.154   0.160   0.687  0.00  0.00    -0.265 OA
BRANCH  20  22
ATOM     22  C   UNL d   1       1.320   2.199   0.876  0.00  0.00     0.111 C 
BRANCH  22  23
ATOM     23  C   UNL d   1       2.523   1.278   1.092  0.00  0.00     0.010 C 
BRANCH  23  24
ATOM     24  C   UNL d   1       3.780   2.124   1.305  0.00  0.00     0.000 C 
BRANCH  24  25
ATOM     25  C   UNL d   1       4.983   1.203   1.520  0.00  0.00    -0.000 C 
BRANCH  25  26
ATOM     26  C   UNL d   1       6.240   2.049   1.733  0.00  0.00    -0.005 C 
ATOM     27  C   UNL d   1       7.443   1.128   1.949  0.00  0.00     0.005 C 
ENDBRANCH  25  26
ENDBRANCH  24  25
ENDBRANCH  23  24
ENDBRANCH  22  23
ENDBRANCH  20  22
ENDBRANCH  19  20
ENDBRANCH   1  19
BRANCH  16  28
ATOM     28  O   UNL d   1     -11.376   3.638   2.858  0.00  0.00    -0.361 OA
ATOM     29  H   UNL d   1     -11.345   4.530   3.230  0.00  0.00     0.217 HD
ENDBRANCH  16  28
TORSDOF 8
