REMARK  7 active torsions:
REMARK  status: ('A' for Active; 'I' for Inactive)
REMARK    1  A    between atoms: C_2  and  O_32 
REMARK    2  A    between atoms: C_7  and  O_30 
REMARK    3  A    between atoms: C_12  and  O_29 
REMARK    4  A    between atoms: C_13  and  O_28 
REMARK    5  A    between atoms: C_17  and  N_40 
REMARK    6  A    between atoms: C_18  and  O_25 
REMARK    7  A    between atoms: C_19  and  C_22 
REMARK       I    between atoms: C_22  and  N_24 
ROOT
ATOM      1  C   UNL d   1       1.649  -0.703   3.899  0.00  0.00     0.052 C 
ATOM      2  C   UNL d   1       2.944   0.070   3.645  0.00  0.00     0.092 C 
ATOM      3  C   UNL d   1       4.105  -0.700   4.217  0.00  0.00     0.015 A 
ATOM      4  C   UNL d   1       4.555  -0.424   5.492  0.00  0.00     0.044 A 
ATOM      5  C   UNL d   1       5.617  -1.138   6.027  0.00  0.00     0.027 A 
ATOM      6  C   UNL d   1       6.233  -2.131   5.293  0.00  0.00     0.039 A 
ATOM      7  C   UNL d   1       5.796  -2.418   4.008  0.00  0.00     0.080 A 
ATOM      8  C   UNL d   1       4.728  -1.695   3.463  0.00  0.00     0.059 A 
ATOM      9  C   UNL d   1       4.261  -1.976   2.090  0.00  0.00     0.195 C 
ATOM     10  O   UNL d   1       4.637  -2.973   1.499  0.00  0.00    -0.287 OA
ATOM     11  C   UNL d   1       3.362  -1.059   1.470  0.00  0.00     0.033 C 
ATOM     12  C   UNL d   1       2.786  -1.404   0.316  0.00  0.00     0.097 C 
ATOM     13  C   UNL d   1       1.853  -0.514  -0.460  0.00  0.00     0.177 C 
ATOM     14  C   UNL d   1       1.997   0.929   0.025  0.00  0.00     0.073 C 
ATOM     15  C   UNL d   1       1.884   0.944   1.559  0.00  0.00     0.024 C 
ATOM     16  C   UNL d   1       3.129   0.268   2.142  0.00  0.00     0.065 C 
ATOM     17  C   UNL d   1       0.999   1.852  -0.621  0.00  0.00     0.252 C 
ATOM     18  C   UNL d   1      -0.398   1.312  -0.560  0.00  0.00     0.094 C 
ATOM     19  C   UNL d   1      -0.662  -0.020  -0.361  0.00  0.00     0.112 C 
ATOM     20  C   UNL d   1       0.435  -0.968  -0.168  0.00  0.00     0.208 C 
ATOM     21  O   UNL d   1       0.215  -2.097   0.219  0.00  0.00    -0.288 OA
ATOM     22 CL   UNL d   1       3.790   0.820   6.429  0.00  0.00    -0.084 Cl
ENDROOT
BRANCH  19  23
ATOM     23  C   UNL d   1      -2.054  -0.496  -0.341  0.00  0.00     0.255 C 
ATOM     24  O   UNL d   1      -2.588  -0.769   0.717  0.00  0.00    -0.268 OA
ATOM     25  N   UNL d   1      -2.737  -0.631  -1.495  0.00  0.00    -0.366 N 
ATOM     26  H   UNL d   1      -2.289  -0.484  -2.343  0.00  0.00     0.159 HD
ATOM     27  H   UNL d   1      -3.675  -0.874  -1.478  0.00  0.00     0.159 HD
ENDBRANCH  19  23
BRANCH  18  28
ATOM     28  O   UNL d   1      -1.427   2.160  -0.712  0.00  0.00    -0.362 OA
ATOM     29  H   UNL d   1      -2.287   1.655  -0.647  0.00  0.00     0.217 HD
ENDBRANCH  18  28
BRANCH  17  30
ATOM     30  N   UNL d   1       1.378   2.013  -2.041  0.00  0.00    -0.068 N 
ATOM     31  C   UNL d   1       0.363   2.823  -2.746  0.00  0.00     0.270 C 
ATOM     32  C   UNL d   1       2.701   2.664  -2.140  0.00  0.00     0.270 C 
ATOM     33  H   UNL d   1       1.429   1.086  -2.480  0.00  0.00     0.279 HD
ENDBRANCH  17  30
BRANCH  13  34
ATOM     34  O   UNL d   1       2.127  -0.600  -1.860  0.00  0.00    -0.374 OA
ATOM     35  H   UNL d   1       2.043  -1.492  -2.223  0.00  0.00     0.211 HD
ENDBRANCH  13  34
BRANCH  12  36
ATOM     36  O   UNL d   1       3.057  -2.625  -0.186  0.00  0.00    -0.361 OA
ATOM     37  H   UNL d   1       2.562  -2.749  -1.046  0.00  0.00     0.217 HD
ENDBRANCH  12  36
BRANCH   2  38
ATOM     38  O   UNL d   1       2.863   1.346   4.284  0.00  0.00    -0.385 OA
ATOM     39  H   UNL d   1       2.081   1.859   4.038  0.00  0.00     0.211 HD
ENDBRANCH   2  38
BRANCH   7  40
ATOM     40  O   UNL d   1       6.400  -3.394   3.284  0.00  0.00    -0.360 OA
ATOM     41  H   UNL d   1       7.143  -3.084   2.748  0.00  0.00     0.217 HD
ENDBRANCH   7  40
TORSDOF 7
