REMARK  16 active torsions:
REMARK  status: ('A' for Active; 'I' for Inactive)
REMARK    1  A    between atoms: C_8  and  C_23 
REMARK    2  A    between atoms: C_8  and  O_44 
REMARK    3  A    between atoms: C_11  and  O_21 
REMARK    4  A    between atoms: C_23  and  C_25 
REMARK    5  A    between atoms: C_25  and  O_26 
REMARK    6  A    between atoms: O_26  and  C_27 
REMARK    7  A    between atoms: C_27  and  C_29 
REMARK    8  A    between atoms: C_29  and  C_30 
REMARK    9  A    between atoms: C_30  and  C_31 
REMARK   10  A    between atoms: C_31  and  C_32 
REMARK   11  A    between atoms: C_32  and  C_33 
REMARK   12  A    between atoms: C_33  and  C_34 
REMARK   13  A    between atoms: C_34  and  C_35 
REMARK       I    between atoms: C_35  and  N_37 
REMARK   14  A    between atoms: N_37  and  C_39 
REMARK   15  A    between atoms: C_39  and  C_40 
REMARK   16  A    between atoms: C_40  and  S_41 
ROOT
ATOM      1  C   UNL d   1      -0.644   1.592   0.678  0.00  0.00     0.015 C 
ATOM      2  C   UNL d   1      -0.541   0.078   0.498  0.00  0.00     0.012 C 
ATOM      3  C   UNL d   1       0.188  -0.223  -0.813  0.00  0.00     0.014 C 
ATOM      4  C   UNL d   1       0.382  -1.731  -1.021  0.00  0.00    -0.001 C 
ATOM      5  C   UNL d   1       1.206  -1.881  -2.308  0.00  0.00     0.002 C 
ATOM      6  C   UNL d   1       0.239  -1.589  -3.490  0.00  0.00     0.009 C 
ATOM      7  C   UNL d   1      -0.445  -2.951  -3.739  0.00  0.00     0.047 C 
ATOM      8  C   UNL d   1       0.643  -4.006  -3.435  0.00  0.00     0.128 C 
ATOM      9  C   UNL d   1       1.690  -3.309  -2.569  0.00  0.00     0.001 C 
ATOM     10  C   UNL d   1       2.167  -4.050  -1.353  0.00  0.00     0.045 C 
ATOM     11  C   UNL d   1       1.386  -3.820  -0.069  0.00  0.00     0.124 C 
ATOM     12  C   UNL d   1       1.135  -2.335   0.155  0.00  0.00     0.035 C 
ATOM     13  C   UNL d   1       0.429  -2.072   1.481  0.00  0.00     0.004 A 
ATOM     14  C   UNL d   1       0.227  -0.580   1.626  0.00  0.00    -0.060 A 
ATOM     15  C   UNL d   1       0.680   0.102   2.660  0.00  0.00     0.059 A 
ATOM     16  C   UNL d   1       1.428  -0.569   3.742  0.00  0.00     0.172 A 
ATOM     17  O   UNL d   1       1.850   0.071   4.687  0.00  0.00    -0.289 OA
ATOM     18  C   UNL d   1       1.649  -2.020   3.651  0.00  0.00     0.052 A 
ATOM     19  C   UNL d   1       1.183  -2.688   2.610  0.00  0.00    -0.009 A 
ATOM     20  C   UNL d   1      -0.970  -2.688   1.483  0.00  0.00     0.025 C 
ATOM     21  C   UNL d   1       2.947  -3.164  -3.478  0.00  0.00     0.019 C 
ENDROOT
BRANCH   8  22
ATOM     22  C   UNL d   1       0.021  -5.212  -2.794  0.00  0.00     0.185 C 
ATOM     23  O   UNL d   1      -1.005  -5.101  -2.168  0.00  0.00    -0.292 OA
BRANCH  22  24
ATOM     24  C   UNL d   1       0.678  -6.561  -2.932  0.00  0.00     0.260 C 
BRANCH  24  25
ATOM     25  O   UNL d   1      -0.110  -7.557  -2.229  0.00  0.00    -0.314 OA
BRANCH  25  26
ATOM     26  C   UNL d   1       0.342  -8.821  -2.255  0.00  0.00     0.259 C 
ATOM     27  O   UNL d   1       1.363  -9.086  -2.845  0.00  0.00    -0.265 OA
BRANCH  26  28
ATOM     28  C   UNL d   1      -0.423  -9.910  -1.547  0.00  0.00     0.111 C 
BRANCH  28  29
ATOM     29  C   UNL d   1       0.302 -11.245  -1.731  0.00  0.00     0.010 C 
BRANCH  29  30
ATOM     30  C   UNL d   1      -0.475 -12.350  -1.013  0.00  0.00     0.000 C 
BRANCH  30  31
ATOM     31  C   UNL d   1       0.249 -13.684  -1.196  0.00  0.00     0.000 C 
BRANCH  31  32
ATOM     32  C   UNL d   1      -0.528 -14.790  -0.478  0.00  0.00     0.009 C 
BRANCH  32  33
ATOM     33  C   UNL d   1       0.197 -16.125  -0.661  0.00  0.00     0.103 C 
BRANCH  33  34
ATOM     34  C   UNL d   1      -0.569 -17.213   0.046  0.00  0.00     0.219 C 
ATOM     35  O   UNL d   1      -1.593 -16.947   0.638  0.00  0.00    -0.273 OA
ATOM     36  N   UNL d   1      -0.115 -18.482   0.020  0.00  0.00    -0.355 N 
ATOM     37  C   UNL d   1       1.123 -18.803  -0.696  0.00  0.00     0.152 C 
BRANCH  36  38
ATOM     38  C   UNL d   1      -0.859 -19.540   0.708  0.00  0.00     0.143 C 
BRANCH  38  39
ATOM     39  C   UNL d   1      -1.877 -20.155  -0.254  0.00  0.00     0.185 C 
BRANCH  39  40
ATOM     40  S   UNL d   1      -2.798 -21.466   0.597  0.00  0.00     0.103 S 
ATOM     41  O   UNL d   1      -1.939 -22.560   0.886  0.00  0.00    -0.595 OA
ATOM     42  O   UNL d   1      -3.623 -20.905   1.610  0.00  0.00    -0.595 OA
ATOM     43  O   UNL d   1      -3.771 -22.000  -0.444  0.00  0.00    -0.595 OA
ENDBRANCH  39  40
ENDBRANCH  38  39
ENDBRANCH  36  38
ENDBRANCH  33  34
ENDBRANCH  32  33
ENDBRANCH  31  32
ENDBRANCH  30  31
ENDBRANCH  29  30
ENDBRANCH  28  29
ENDBRANCH  26  28
ENDBRANCH  25  26
ENDBRANCH  24  25
ENDBRANCH  22  24
ENDBRANCH   8  22
BRANCH   8  44
ATOM     44  O   UNL d   1       1.252  -4.404  -4.678  0.00  0.00    -0.381 OA
ATOM     45  H   UNL d   1       0.649  -4.855  -5.284  0.00  0.00     0.211 HD
ENDBRANCH   8  44
BRANCH  11  46
ATOM     46  O   UNL d   1       0.190  -4.591  -0.071  0.00  0.00    -0.395 OA
ATOM     47  H   UNL d   1       0.338  -5.546  -0.118  0.00  0.00     0.210 HD
ENDBRANCH  11  46
TORSDOF 16
