REMARK  0 active torsions:
REMARK  status: ('A' for Active; 'I' for Inactive)
ROOT
ATOM      1  C   UNL d   1       2.513   3.762   0.804  0.00  0.00     0.047 C 
ATOM      2  C   UNL d   1       1.241   2.942   1.027  0.00  0.00     0.071 C 
ATOM      3  C   UNL d   1       1.295   2.271   2.402  0.00  0.00     0.039 C 
ATOM      4  C   UNL d   1       1.369   3.346   3.487  0.00  0.00     0.009 C 
ATOM      5  C   UNL d   1       0.146   4.265   3.409  0.00  0.00     0.006 C 
ATOM      6  C   UNL d   1       0.093   4.929   2.032  0.00  0.00    -0.002 C 
ATOM      7  C   UNL d   1       0.017   3.857   0.943  0.00  0.00     0.025 C 
ATOM      8  C   UNL d   1      -1.254   3.023   1.132  0.00  0.00     0.018 C 
ATOM      9  C   UNL d   1      -1.322   1.964   0.019  0.00  0.00     0.112 C 
ATOM     10  C   UNL d   1      -0.014   1.204   0.009  0.00  0.00     0.259 C 
ATOM     11  O   UNL d   1       0.002  -0.004   0.002  0.00  0.00    -0.265 OA
ATOM     12  O   UNL d   1       1.134   1.913   0.002  0.00  0.00    -0.310 OA
ATOM     13  C   UNL d   1      -1.143   5.826   1.933  0.00  0.00     0.010 C 
ATOM     14  C   UNL d   1      -1.040   6.962   2.955  0.00  0.00     0.036 C 
ATOM     15  C   UNL d   1      -0.835   6.345   4.326  0.00  0.00    -0.064 A 
ATOM     16  C   UNL d   1      -1.642   6.699   5.317  0.00  0.00     0.058 A 
ATOM     17  C   UNL d   1      -1.496   6.097   6.651  0.00  0.00     0.172 A 
ATOM     18  O   UNL d   1      -2.211   6.446   7.572  0.00  0.00    -0.289 OA
ATOM     19  C   UNL d   1      -0.466   5.063   6.846  0.00  0.00     0.052 A 
ATOM     20  C   UNL d   1       0.332   4.729   5.844  0.00  0.00    -0.009 A 
ATOM     21  C   UNL d   1       0.271   5.345   4.489  0.00  0.00     0.001 A 
ATOM     22  C   UNL d   1       1.597   6.075   4.266  0.00  0.00     0.025 C 
ENDROOT
TORSDOF 0
