REMARK  3 active torsions:
REMARK  status: ('A' for Active; 'I' for Inactive)
REMARK    1  A    between atoms: C_2  and  C_4 
REMARK    2  A    between atoms: C_4  and  O_25 
REMARK    3  A    between atoms: O_25  and  C_26 
ROOT
ATOM      1  C   UNL d   1       1.344  -0.697   0.025  0.00  0.00     0.138 C 
ATOM      2  C   UNL d   1       1.643  -0.522  -1.488  0.00  0.00     0.048 C 
ATOM      3  C   UNL d   1       1.426  -1.914  -2.142  0.00  0.00     0.009 C 
ATOM      4  C   UNL d   1       0.706  -2.716  -1.048  0.00  0.00     0.005 C 
ATOM      5  C   UNL d   1       1.413  -2.224   0.229  0.00  0.00    -0.001 C 
ATOM      6  C   UNL d   1       0.790  -2.766   1.483  0.00  0.00     0.013 C 
ATOM      7  C   UNL d   1       0.211  -4.176   1.256  0.00  0.00     0.007 C 
ATOM      8  C   UNL d   1       0.977  -4.882   0.152  0.00  0.00     0.006 C 
ATOM      9  C   UNL d   1       0.693  -4.207  -1.192  0.00  0.00     0.020 C 
ATOM     10  C   UNL d   1       1.611  -4.768  -2.235  0.00  0.00     0.003 C 
ATOM     11  C   UNL d   1       1.998  -6.048  -2.152  0.00  0.00     0.037 C 
ATOM     12  C   UNL d   1       1.563  -6.918  -1.060  0.00  0.00    -0.025 C 
ATOM     13  C   UNL d   1       1.961  -8.212  -1.037  0.00  0.00     0.059 C 
ATOM     14  C   UNL d   1       1.621  -9.077   0.013  0.00  0.00     0.149 C 
ATOM     15  O   UNL d   1       1.950 -10.246  -0.047  0.00  0.00    -0.293 OA
ATOM     16  C   UNL d   1       0.858  -8.584   1.213  0.00  0.00     0.084 C 
ATOM     17  C   UNL d   1       1.034  -7.073   1.357  0.00  0.00     0.022 C 
ATOM     18  C   UNL d   1       0.677  -6.376   0.042  0.00  0.00    -0.010 C 
ATOM     19  C   UNL d   1      -0.790  -6.622  -0.292  0.00  0.00     0.021 C 
ATOM     20 CL   UNL d   1       3.044  -6.687  -3.383  0.00  0.00    -0.084 Cl
ATOM     21  C   UNL d   1       2.915  -2.565   0.201  0.00  0.00     0.019 C 
ENDROOT
BRANCH   1  22
ATOM     22  C   UNL d   1      -0.010  -0.142   0.351  0.00  0.00     0.158 C 
ATOM     23  C   UNL d   1      -0.315   0.329   1.750  0.00  0.00     0.094 C 
ATOM     24  O   UNL d   1      -0.857  -0.074  -0.507  0.00  0.00    -0.295 OA
ENDBRANCH   1  22
BRANCH   1  25
ATOM     25  O   UNL d   1       2.372  -0.052   0.820  0.00  0.00    -0.302 OA
BRANCH  25  26
ATOM     26  C   UNL d   1       2.550   1.265   0.633  0.00  0.00     0.256 C 
ATOM     27  O   UNL d   1       1.832   1.870  -0.128  0.00  0.00    -0.266 OA
ATOM     28  C   UNL d   1       3.645   1.990   1.373  0.00  0.00     0.126 C 
ENDBRANCH  25  26
ENDBRANCH   1  25
TORSDOF 3
