REMARK  11 active torsions:
REMARK  status: ('A' for Active; 'I' for Inactive)
REMARK    1  A    between atoms: C_3  and  C_32 
REMARK    2  A    between atoms: C_4  and  C_23 
REMARK    3  A    between atoms: C_5  and  C_10 
REMARK    4  A    between atoms: C_10  and  O_12 
REMARK    5  A    between atoms: O_12  and  C_13 
REMARK    6  A    between atoms: C_13  and  C_14 
REMARK    7  A    between atoms: C_14  and  N_36 
REMARK    8  A    between atoms: C_16  and  C_17 
REMARK    9  A    between atoms: C_16  and  N_36 
REMARK   10  A    between atoms: C_27  and  N_29 
REMARK   11  A    between atoms: C_32  and  O_34 
ROOT
ATOM      1  C   UNL d   1       0.880   0.209   4.937  0.00  0.00     0.064 C 
ATOM      2  C   UNL d   1      -0.295   1.147   4.832  0.00  0.00    -0.003 C 
ATOM      3  C   UNL d   1      -0.935   1.280   3.657  0.00  0.00     0.144 C 
ATOM      4  C   UNL d   1      -2.112   2.201   3.506  0.00  0.00     0.079 C 
ATOM      5  C   UNL d   1      -2.659   2.591   4.850  0.00  0.00     0.049 C 
ATOM      6  C   UNL d   1      -1.944   2.413   5.974  0.00  0.00     0.018 C 
ATOM      7  N   UNL d   1      -0.697   1.853   5.932  0.00  0.00    -0.366 N 
ATOM      8  HN  UNL d   1      -0.064   1.963   6.725  1.00  0.00     0.165 HD
ATOM      9  C   UNL d   1      -2.531   2.828   7.299  0.00  0.00     0.069 C 
ENDROOT
BRANCH   5  10
ATOM     10  C   UNL d   1      -3.950   3.161   4.933  0.00  0.00     0.292 C 
ATOM     11  O   UNL d   1      -4.115   4.336   4.662  0.00  0.00    -0.260 OA
BRANCH  10  12
ATOM     12  O   UNL d   1      -5.000   2.402   5.313  0.00  0.00    -0.316 OA
BRANCH  12  13
ATOM     13  C   UNL d   1      -6.275   3.043   5.375  0.00  0.00     0.206 C 
BRANCH  13  14
ATOM     14  C   UNL d   1      -7.333   2.032   5.820  0.00  0.00     0.261 C 
BRANCH  14  15
ATOM     15  N   UNL d   1      -7.021   1.591   7.196  0.00  0.00    -0.069 N 
ATOM     16  C   UNL d   1      -7.208   2.712   8.141  0.00  0.00     0.270 C 
ATOM     17  H   UNL d   1      -6.043   1.282   7.233  0.00  0.00     0.279 HD
BRANCH  15  18
ATOM     18  C   UNL d   1      -7.895   0.460   7.574  0.00  0.00     0.273 C 
BRANCH  18  19
ATOM     19  C   UNL d   1      -7.413  -0.110   8.883  0.00  0.00    -0.033 A 
ATOM     20  C   UNL d   1      -7.923   0.369  10.075  0.00  0.00     0.009 A 
ATOM     21  C   UNL d   1      -7.481  -0.154  11.276  0.00  0.00     0.001 A 
ATOM     22  C   UNL d   1      -6.529  -1.157  11.284  0.00  0.00     0.000 A 
ATOM     23  C   UNL d   1      -6.020  -1.636  10.092  0.00  0.00     0.001 A 
ATOM     24  C   UNL d   1      -6.465  -1.116   8.891  0.00  0.00     0.009 A 
ENDBRANCH  18  19
ENDBRANCH  15  18
ENDBRANCH  14  15
ENDBRANCH  13  14
ENDBRANCH  12  13
ENDBRANCH  10  12
ENDBRANCH   5  10
BRANCH   4  25
ATOM     25  C   UNL d   1      -1.680   3.441   2.767  0.00  0.00    -0.046 A 
ATOM     26  C   UNL d   1      -2.273   3.770   1.563  0.00  0.00     0.043 A 
ATOM     27  C   UNL d   1      -1.880   4.911   0.888  0.00  0.00     0.103 A 
ATOM     28  C   UNL d   1      -0.886   5.716   1.411  0.00  0.00     0.036 A 
ATOM     29  C   UNL d   1      -0.289   5.384   2.613  0.00  0.00     0.003 A 
ATOM     30  C   UNL d   1      -0.686   4.246   3.291  0.00  0.00     0.008 A 
BRANCH  27  31
ATOM     31  N   UNL d   1      -2.519   5.266  -0.399  0.00  0.00    -0.116 N 
ATOM     32  O   UNL d   1      -2.169   6.268  -0.997  0.00  0.00    -0.532 OA
ATOM     33  O   UNL d   1      -3.395   4.557  -0.861  0.00  0.00    -0.532 OA
ENDBRANCH  27  31
ENDBRANCH   4  25
BRANCH   3  34
ATOM     34  C   UNL d   1      -0.494   0.533   2.541  0.00  0.00     0.269 C 
ATOM     35  O   UNL d   1       0.516  -0.141   2.620  0.00  0.00    -0.264 OA
BRANCH  34  36
ATOM     36  O   UNL d   1      -1.193   0.567   1.387  0.00  0.00    -0.326 OA
ATOM     37  C   UNL d   1      -0.689  -0.213   0.300  0.00  0.00     0.213 C 
ENDBRANCH  34  36
ENDBRANCH   3  34
TORSDOF 11
