REMARK  3 active torsions:
REMARK  status: ('A' for Active; 'I' for Inactive)
REMARK    1  A    between atoms: C_6  and  O_23 
REMARK    2  A    between atoms: C_14  and  O_22 
REMARK    3  A    between atoms: C_16  and  O_21 
ROOT
ATOM      1  C   UNL d   1      -2.100   2.129   0.992  0.00  0.00     0.040 C 
ATOM      2  C   UNL d   1      -0.705   1.573   1.276  0.00  0.00     0.128 C 
ATOM      3  C   UNL d   1      -0.013   1.095   0.008  0.00  0.00     0.032 C 
ATOM      4  C   UNL d   1      -0.714   1.577  -1.259  0.00  0.00     0.005 C 
ATOM      5  C   UNL d   1       0.094   1.128  -2.484  0.00  0.00     0.032 C 
ATOM      6  C   UNL d   1       0.414   2.329  -3.372  0.00  0.00     0.118 C 
ATOM      7  C   UNL d   1       1.590   3.106  -2.780  0.00  0.00     0.032 C 
ATOM      8  C   UNL d   1       1.317   4.608  -2.853  0.00  0.00     0.002 C 
ATOM      9  C   UNL d   1       2.518   5.372  -2.292  0.00  0.00     0.000 C 
ATOM     10  C   UNL d   1       2.186   5.903  -0.897  0.00  0.00     0.005 C 
ATOM     11  C   UNL d   1       2.902   5.055   0.155  0.00  0.00     0.040 C 
ATOM     12  C   UNL d   1       2.371   5.386   1.525  0.00  0.00    -0.036 A 
ATOM     13  C   UNL d   1       2.930   6.435   2.223  0.00  0.00     0.044 A 
ATOM     14  C   UNL d   1       2.474   6.756   3.496  0.00  0.00     0.068 A 
ATOM     15  C   UNL d   1       1.452   6.018   4.075  0.00  0.00     0.074 A 
ATOM     16  C   UNL d   1       0.876   4.968   3.381  0.00  0.00     0.085 A 
ATOM     17  C   UNL d   1       1.325   4.652   2.087  0.00  0.00     0.079 A 
ATOM     18  C   UNL d   1       0.663   3.576   1.328  0.00  0.00     0.297 C 
ATOM     19  O   UNL d   1       0.674   3.604   0.116  0.00  0.00    -0.259 OA
ATOM     20  O   UNL d   1       0.085   2.557   1.981  0.00  0.00    -0.312 OA
ENDROOT
BRANCH   6  21
ATOM     21  O   UNL d   1      -0.729   3.173  -3.482  0.00  0.00    -0.396 OA
ATOM     22  H   UNL d   1      -0.589   3.955  -4.035  0.00  0.00     0.210 HD
ENDBRANCH   6  21
BRANCH  16  23
ATOM     23  O   UNL d   1      -0.125   4.253   3.954  0.00  0.00    -0.360 OA
ATOM     24  H   UNL d   1       0.179   3.489   4.462  0.00  0.00     0.217 HD
ENDBRANCH  16  23
BRANCH  14  25
ATOM     25  O   UNL d   1       3.030   7.791   4.175  0.00  0.00    -0.361 OA
ATOM     26  H   UNL d   1       3.787   7.540   4.723  0.00  0.00     0.217 HD
ENDBRANCH  14  25
TORSDOF 3
