REMARK  7 active torsions:
REMARK  status: ('A' for Active; 'I' for Inactive)
REMARK    1  A    between atoms: C_2  and  C_3 
REMARK    2  A    between atoms: C_3  and  C_4 
REMARK    3  A    between atoms: C_4  and  C_5 
REMARK    4  A    between atoms: C_5  and  C_6 
REMARK    5  A    between atoms: C_6  and  C_7 
REMARK    6  A    between atoms: C_7  and  C_10 
REMARK    7  A    between atoms: C_12  and  O_27 
ROOT
ATOM      1  C   UNL d   1       0.000   1.080   2.488  0.00  0.00    -0.045 A 
ATOM      2  C   UNL d   1      -0.654   0.276   3.402  0.00  0.00     0.045 A 
ATOM      3  C   UNL d   1       0.018  -0.185   4.523  0.00  0.00     0.075 A 
ATOM      4  C   UNL d   1       1.344   0.169   4.736  0.00  0.00     0.013 A 
ATOM      5  C   UNL d   1       1.999   0.975   3.820  0.00  0.00     0.079 A 
ATOM      6  C   UNL d   1       1.319   1.431   2.695  0.00  0.00     0.045 A 
ATOM      7  O   UNL d   1       3.298   1.335   3.985  0.00  0.00    -0.340 OA
ATOM      8  C   UNL d   1       3.895   1.159   5.271  0.00  0.00     0.065 C 
ATOM      9  C   UNL d   1       3.564  -0.265   5.757  0.00  0.00     0.029 C 
ATOM     10  C   UNL d   1       2.052  -0.328   5.965  0.00  0.00     0.038 C 
ATOM     11  C   UNL d   1       1.592  -1.732   6.328  0.00  0.00     0.088 C 
ATOM     12  C   UNL d   1       2.147  -2.720   5.327  0.00  0.00     0.127 C 
ATOM     13  O   UNL d   1       1.431  -3.525   4.780  0.00  0.00    -0.298 OA
ATOM     14  C   UNL d   1       3.631  -2.666   5.033  0.00  0.00     0.079 C 
ATOM     15  C   UNL d   1       3.990  -1.243   4.658  0.00  0.00     0.015 C 
ATOM     16  C   UNL d   1       5.412   1.330   5.165  0.00  0.00     0.046 C 
ATOM     17  C   UNL d   1       3.326   2.187   6.251  0.00  0.00     0.046 C 
ENDROOT
BRANCH   1  18
ATOM     18  C   UNL d   1      -0.729   1.579   1.267  0.00  0.00    -0.020 C 
ATOM     19  C   UNL d   1      -0.013   1.086   0.008  0.00  0.00     0.020 C 
ATOM     20  C   UNL d   1      -0.750   3.109   1.275  0.00  0.00     0.020 C 
BRANCH  18  21
ATOM     21  C   UNL d   1      -2.164   1.050   1.278  0.00  0.00     0.013 C 
BRANCH  21  22
ATOM     22  C   UNL d   1      -2.904   1.556   0.038  0.00  0.00     0.001 C 
BRANCH  22  23
ATOM     23  C   UNL d   1      -4.340   1.027   0.049  0.00  0.00     0.000 C 
BRANCH  23  24
ATOM     24  C   UNL d   1      -5.080   1.534  -1.190  0.00  0.00    -0.000 C 
BRANCH  24  25
ATOM     25  C   UNL d   1      -6.515   1.004  -1.180  0.00  0.00    -0.005 C 
ATOM     26  C   UNL d   1      -7.255   1.511  -2.419  0.00  0.00     0.005 C 
ENDBRANCH  24  25
ENDBRANCH  23  24
ENDBRANCH  22  23
ENDBRANCH  21  22
ENDBRANCH  18  21
ENDBRANCH   1  18
BRANCH   3  27
ATOM     27  O   UNL d   1      -0.623  -0.980   5.419  0.00  0.00    -0.360 OA
ATOM     28  H   UNL d   1      -1.071  -0.495   6.125  0.00  0.00     0.217 HD
ENDBRANCH   3  27
TORSDOF 7
