REMARK  1 active torsions:
REMARK  status: ('A' for Active; 'I' for Inactive)
REMARK    1  A    between atoms: C_10  and  O_11 
ROOT
ATOM      1  C   UNL d   1       4.471   1.788   0.683  0.00  0.00     0.018 C 
ATOM      2  C   UNL d   1       4.001   2.812  -0.351  0.00  0.00    -0.014 C 
ATOM      3  C   UNL d   1       3.078   3.820   0.293  0.00  0.00     0.012 C 
ATOM      4  C   UNL d   1       1.610   3.476  -0.021  0.00  0.00     0.006 C 
ATOM      5  C   UNL d   1       1.444   1.965  -0.001  0.00  0.00    -0.002 C 
ATOM      6  C   UNL d   1       2.113   1.370  -1.251  0.00  0.00    -0.005 C 
ATOM      7  C   UNL d   1       3.350   2.138  -1.573  0.00  0.00     0.001 C 
ATOM      8  C   UNL d   1       4.535   1.357  -2.164  0.00  0.00     0.008 C 
ATOM      9  C   UNL d   1       5.696   2.384  -2.058  0.00  0.00     0.033 C 
ATOM     10  C   UNL d   1       5.261   3.426  -0.996  0.00  0.00     0.126 C 
ATOM     11  C   UNL d   1       2.267  -0.130  -1.045  0.00  0.00     0.010 C 
ATOM     12  C   UNL d   1       0.849  -0.727  -1.030  0.00  0.00     0.035 C 
ATOM     13  C   UNL d   1       0.002  -0.004   0.002  0.00  0.00    -0.072 C 
ATOM     14  C   UNL d   1      -0.700  -0.746   0.853  0.00  0.00     0.053 C 
ATOM     15  C   UNL d   1      -1.594  -0.127   1.834  0.00  0.00     0.149 C 
ATOM     16  O   UNL d   1      -2.022  -0.756   2.783  0.00  0.00    -0.293 OA
ATOM     17  C   UNL d   1      -1.962   1.325   1.622  0.00  0.00     0.084 C 
ATOM     18  C   UNL d   1      -0.705   2.092   1.230  0.00  0.00     0.017 C 
ATOM     19  C   UNL d   1      -0.018   1.504   0.010  0.00  0.00     0.019 C 
ENDROOT
BRANCH  10  20
ATOM     20  O   UNL d   1       6.279   3.593  -0.012  0.00  0.00    -0.395 OA
ATOM     21  H   UNL d   1       7.118   3.920  -0.366  0.00  0.00     0.210 HD
ENDBRANCH  10  20
TORSDOF 1
