REMARK  10 active torsions:
REMARK  status: ('A' for Active; 'I' for Inactive)
REMARK    1  A    between atoms: C_2  and  C_4 
REMARK    2  A    between atoms: C_4  and  C_5 
REMARK    3  A    between atoms: C_4  and  N_30 
REMARK    4  A    between atoms: C_5  and  O_7 
REMARK    5  A    between atoms: O_7  and  C_8 
REMARK    6  A    between atoms: C_8  and  C_9 
REMARK    7  A    between atoms: C_9  and  O_10 
REMARK    8  A    between atoms: O_10  and  C_11 
REMARK    9  A    between atoms: C_11  and  N_12 
REMARK   10  A    between atoms: C_20  and  N_25 
ROOT
ATOM      1  N   UNL d   1      -3.602  -3.358   6.444  0.00  0.00    -0.305 N 
ATOM      2  C   UNL d   1      -2.265  -3.631   6.459  0.00  0.00     0.187 A 
ATOM      3  N   UNL d   1      -2.075  -4.885   6.751  0.00  0.00    -0.345 N 
ATOM      4  HN  UNL d   1      -1.165  -5.341   6.826  1.00  0.00     0.167 HD
ATOM      5  C   UNL d   1      -3.273  -5.489   6.941  0.00  0.00     0.146 A 
ATOM      6  C   UNL d   1      -4.262  -4.517   6.752  0.00  0.00     0.145 A 
ATOM      7  N   UNL d   1      -5.551  -4.848   6.887  0.00  0.00    -0.317 N 
ATOM      8  HN  UNL d   1      -6.269  -4.138   6.746  1.00  0.00     0.170 HD
ATOM      9  C   UNL d   1      -5.909  -6.074   7.199  0.00  0.00     0.159 A 
ATOM     10  N   UNL d   1      -4.992  -7.063   7.398  0.00  0.00    -0.298 N 
ATOM     11  H   UNL d   1      -5.298  -7.984   7.640  0.00  0.00     0.171 HD
ATOM     12  C   UNL d   1      -3.671  -6.805   7.271  0.00  0.00     0.278 A 
ATOM     13  O   UNL d   1      -2.843  -7.682   7.449  0.00  0.00    -0.265 OA
ENDROOT
BRANCH   1  14
ATOM     14  C   UNL d   1      -4.218  -2.060   6.157  0.00  0.00     0.301 C 
BRANCH  14  15
ATOM     15  O   UNL d   1      -3.197  -1.098   5.887  0.00  0.00    -0.369 OA
BRANCH  15  16
ATOM     16  C   UNL d   1      -3.694   0.210   5.593  0.00  0.00     0.196 C 
BRANCH  16  17
ATOM     17  C   UNL d   1      -2.519   1.153   5.323  0.00  0.00     0.205 C 
BRANCH  17  18
ATOM     18  O   UNL d   1      -1.824   0.727   4.122  0.00  0.00    -0.318 OA
BRANCH  18  19
ATOM     19  C   UNL d   1      -0.761   1.454   3.743  0.00  0.00     0.290 C 
ATOM     20  O   UNL d   1      -0.423   2.414   4.394  0.00  0.00    -0.263 OA
BRANCH  19  21
ATOM     21  C   UNL d   1       0.011   1.072   2.506  0.00  0.00     0.285 C 
BRANCH  21  22
ATOM     22  C   UNL d   1      -0.729   1.579   1.267  0.00  0.00     0.018 C 
ATOM     23  C   UNL d   1      -0.013   1.086   0.008  0.00  0.00     0.012 C 
ATOM     24  C   UNL d   1      -0.750   3.109   1.275  0.00  0.00     0.012 C 
ENDBRANCH  21  22
BRANCH  21  25
ATOM     25  N   UNL d   1       1.358   1.666   2.580  0.00  0.00    -0.066 N 
ATOM     26  H   UNL d   1       1.909   1.383   1.772  0.00  0.00     0.275 HD
ATOM     27  H   UNL d   1       1.291   2.682   2.606  0.00  0.00     0.275 HD
ATOM     28  H   UNL d   1       1.824   1.340   3.435  0.00  0.00     0.275 HD
ENDBRANCH  21  25
ENDBRANCH  19  21
ENDBRANCH  18  19
ENDBRANCH  17  18
ENDBRANCH  16  17
ENDBRANCH  15  16
ENDBRANCH  14  15
ENDBRANCH   1  14
BRANCH   9  29
ATOM     29  N   UNL d   1      -7.243  -6.367   7.326  0.00  0.00    -0.274 NA
ATOM     30  H   UNL d   1      -7.642  -5.800   8.047  0.00  0.00     0.127 HD
ATOM     31  H   UNL d   1      -7.522  -7.268   7.556  0.00  0.00     0.127 HD
ENDBRANCH   9  29
TORSDOF 10
