REMARK  5 active torsions:
REMARK  status: ('A' for Active; 'I' for Inactive)
REMARK    1  A    between atoms: C_2  and  C_3 
REMARK       I    between atoms: C_3  and  N_5 
REMARK    2  A    between atoms: N_5  and  C_6 
REMARK    3  A    between atoms: N_5  and  C_13 
REMARK    4  A    between atoms: C_13  and  C_15 
REMARK    5  A    between atoms: C_15  and  N_21 
ROOT
ATOM      1  C   UNL d   1       5.160  -1.137   0.381  0.00  0.00     0.225 C 
ATOM      2  O   UNL d   1       5.570  -1.194  -0.759  0.00  0.00    -0.273 OA
ATOM      3  N   UNL d   1       4.932   0.061   0.956  0.00  0.00    -0.298 N 
ENDROOT
BRANCH   3   4
ATOM      4  C   UNL d   1       5.035   1.228   0.200  0.00  0.00     0.110 A 
ATOM      5  N   UNL d   1       5.117   1.150  -1.118  0.00  0.00    -0.352 N 
ATOM      6  C   UNL d   1       5.210   2.229  -1.871  0.00  0.00     0.089 A 
ATOM      7  HN  UNL d   1       5.108   0.232  -1.564  1.00  0.00     0.166 HD
ATOM      8  C   UNL d   1       5.237   3.488  -1.303  0.00  0.00     0.017 A 
ATOM      9  C   UNL d   1       5.159   3.612   0.077  0.00  0.00     0.005 A 
ATOM     10  C   UNL d   1       5.057   2.462   0.839  0.00  0.00     0.049 A 
ENDBRANCH   3   4
BRANCH   3  11
ATOM     11  C   UNL d   1       4.576   0.136   2.375  0.00  0.00     0.116 C 
ATOM     12  C   UNL d   1       5.777  -0.285   3.225  0.00  0.00     0.034 C 
BRANCH  11  13
ATOM     13  C   UNL d   1       3.399  -0.800   2.656  0.00  0.00     0.260 C 
BRANCH  13  14
ATOM     14  N   UNL d   1       2.331  -0.539   1.669  0.00  0.00    -0.069 N 
ATOM     15  C   UNL d   1       1.139  -1.354   1.988  0.00  0.00     0.235 C 
ATOM     16  C   UNL d   1       0.094  -1.157   0.887  0.00  0.00     0.028 C 
ATOM     17  C   UNL d   1      -0.295   0.322   0.818  0.00  0.00     0.003 C 
ATOM     18  C   UNL d   1       0.960   1.161   0.561  0.00  0.00     0.028 C 
ATOM     19  C   UNL d   1       1.980   0.897   1.671  0.00  0.00     0.235 C 
ATOM     20  H   UNL d   1       2.671  -0.797   0.735  0.00  0.00     0.280 HD
ENDBRANCH  13  14
ENDBRANCH  11  13
ENDBRANCH   3  11
BRANCH   1  21
ATOM     21  C   UNL d   1       4.905  -2.405   1.155  0.00  0.00     0.099 C 
ATOM     22  C   UNL d   1       5.496  -3.594   0.395  0.00  0.00     0.014 C 
ENDBRANCH   1  21
TORSDOF 5
