REMARK  9 active torsions:
REMARK  status: ('A' for Active; 'I' for Inactive)
REMARK    1  A    between atoms: C_3  and  S_10 
REMARK    2  A    between atoms: S_10  and  C_11 
REMARK    3  A    between atoms: C_11  and  C_12 
REMARK    4  A    between atoms: CA_13  and  C_36 
REMARK    5  A    between atoms: CA_16  and  N_19 
REMARK       I    between atoms: N_19  and  C_20 
REMARK    6  A    between atoms: C_20  and  C_22 
REMARK    7  A    between atoms: C_22  and  C_27 
REMARK    8  A    between atoms: N_23  and  O_25 
REMARK    9  A    between atoms: C_30  and  N_33 
ROOT
ATOM      1  C   UNL d   1       5.566   3.187  -0.335  0.00  0.00    -0.027 C 
ATOM      2  CA  UNL d   1       6.174   3.326  -1.504  0.00  0.00     0.119 C 
ATOM      3  N   UNL d   1       7.558   3.546  -1.558  0.00  0.00    -0.293 N 
ATOM      4  C   UNL d   1       8.556   3.288  -0.485  0.00  0.00     0.187 C 
ATOM      5  CA  UNL d   1       9.529   4.210  -1.196  0.00  0.00     0.211 C 
ATOM      6  C   UNL d   1       8.496   4.130  -2.295  0.00  0.00     0.251 C 
ATOM      7  O   UNL d   1       8.515   4.481  -3.456  0.00  0.00    -0.271 OA
ATOM      8  S   UNL d   1       7.821   3.952   1.048  0.00  0.00    -0.136 SA
ATOM      9  C   UNL d   1       6.178   3.171   1.029  0.00  0.00     0.113 C 
ENDROOT
BRANCH   5  10
ATOM     10  N   UNL d   1       9.662   5.536  -0.586  0.00  0.00    -0.340 N 
ATOM     11  C   UNL d   1      10.791   6.250  -0.765  0.00  0.00     0.273 C 
ATOM     12  O   UNL d   1      11.662   5.835  -1.503  0.00  0.00    -0.266 OA
ATOM     13  H   UNL d   1       8.937   5.899  -0.054  0.00  0.00     0.163 HD
BRANCH  11  14
ATOM     14  C   UNL d   1      10.970   7.541  -0.060  0.00  0.00     0.149 C 
ATOM     15  N   UNL d   1      12.101   8.181  -0.151  0.00  0.00    -0.260 N 
ATOM     16  HN  UNL d   1      12.253   9.028   0.397  1.00  0.00     0.194 HD
BRANCH  15  17
ATOM     17  O   UNL d   1      13.119   7.701  -1.009  0.00  0.00    -0.285 OA
ATOM     18  C   UNL d   1      14.304   8.500  -1.009  0.00  0.00     0.237 C 
ENDBRANCH  15  17
BRANCH  14  19
ATOM     19  C   UNL d   1       9.864   8.103   0.745  0.00  0.00     0.075 A 
ATOM     20  N   UNL d   1       8.748   7.403   0.941  0.00  0.00    -0.335 N 
ATOM     21  C   UNL d   1       7.753   7.890   1.657  0.00  0.00     0.142 A 
ATOM     22  HN  UNL d   1       8.661   6.474   0.529  1.00  0.00     0.168 HD
ATOM     23  S   UNL d   1       8.397   9.489   2.128  0.00  0.00    -0.064 SA
ATOM     24  C   UNL d   1       9.978   9.348   1.305  0.00  0.00     0.085 A 
BRANCH  21  25
ATOM     25  N   UNL d   1       6.532   7.314   1.964  0.00  0.00    -0.380 N 
ATOM     26  H   UNL d   1       6.317   6.427   1.634  0.00  0.00     0.158 HD
ATOM     27  H   UNL d   1       5.890   7.797   2.508  0.00  0.00     0.158 HD
ENDBRANCH  21  25
ENDBRANCH  14  19
ENDBRANCH  11  14
ENDBRANCH   5  10
BRANCH   2  28
ATOM     28  C   UNL d   1       5.392   3.254  -2.752  0.00  0.00     0.227 C 
ATOM     29  O   UNL d   1       5.919   3.515  -3.815  0.00  0.00    -0.643 OA
ATOM     30  OXT UNL d   1       4.092   2.899  -2.713  0.00  0.00    -0.643 OA
ENDBRANCH   2  28
BRANCH   1  31
ATOM     31  C   UNL d   1       4.070   3.017  -0.387  0.00  0.00     0.120 C 
BRANCH  31  32
ATOM     32  S   UNL d   1       3.670   1.278  -0.691  0.00  0.00    -0.087 SA
BRANCH  32  33
ATOM     33  C   UNL d   1       1.910   1.367  -0.703  0.00  0.00     0.178 A 
ATOM     34  N   UNL d   1       1.054   0.335  -0.893  0.00  0.00    -0.259 N 
ATOM     35  C   UNL d   1       1.393  -1.071  -1.129  0.00  0.00     0.181 C 
ATOM     36  N   UNL d   1      -0.230   0.902  -0.816  0.00  0.00    -0.224 N 
ATOM     37  N   UNL d   1      -0.070   2.162  -0.598  0.00  0.00    -0.226 N 
ATOM     38  HN  UNL d   1      -1.119   0.410  -0.914  1.00  0.00     0.210 HD
ATOM     39  N   UNL d   1       1.181   2.447  -0.529  0.00  0.00    -0.263 N 
ATOM     40  HN  UNL d   1      -0.828   2.836  -0.494  1.00  0.00     0.210 HD
ATOM     41  HN  UNL d   1       1.555   3.381  -0.363  1.00  0.00     0.190 HD
ENDBRANCH  32  33
ENDBRANCH  31  32
ENDBRANCH   1  31
TORSDOF 9
