REMARK  15 active torsions:
REMARK  status: ('A' for Active; 'I' for Inactive)
REMARK    1  A    between atoms: C_1  and  C_2 
REMARK    2  A    between atoms: C_1  and  N_21 
REMARK    3  A    between atoms: C_4  and  C_5 
REMARK    4  A    between atoms: C_4  and  N_21 
REMARK    5  A    between atoms: C_5  and  C_6 
REMARK    6  A    between atoms: C_5  and  O_16 
REMARK    7  A    between atoms: C_6  and  C_7 
REMARK    8  A    between atoms: C_6  and  O_15 
REMARK    9  A    between atoms: C_7  and  C_8 
REMARK   10  A    between atoms: C_7  and  O_14 
REMARK   11  A    between atoms: C_8  and  C_9 
REMARK   12  A    between atoms: C_8  and  O_13 
REMARK   13  A    between atoms: C_9  and  N_24 
REMARK   14  A    between atoms: C_10  and  C_11 
REMARK   15  A    between atoms: C_10  and  N_24 
ROOT
ATOM      1  C   UNL d   1      -1.408  -2.063  -0.121  0.00  0.00     0.179 C 
ENDROOT
BRANCH   1   2
ATOM      2  C   UNL d   1      -2.824  -2.591  -0.361  0.00  0.00     0.175 C 
BRANCH   2   3
ATOM      3  C   UNL d   1      -2.785  -4.114  -0.494  0.00  0.00     0.266 C 
BRANCH   3   4
ATOM      4  N   UNL d   1      -4.153  -4.615  -0.725  0.00  0.00    -0.072 N 
ATOM      5  H   UNL d   1      -4.749  -4.349   0.068  0.00  0.00     0.277 HD
ATOM      6  H   UNL d   1      -4.524  -4.200  -1.587  0.00  0.00     0.277 HD
BRANCH   4   7
ATOM      7  C   UNL d   1      -4.145  -6.084  -0.857  0.00  0.00     0.247 C 
BRANCH   7   8
ATOM      8  C   UNL d   1      -5.575  -6.574  -1.095  0.00  0.00     0.142 C 
ATOM      9 CL   UNL d   1      -5.576  -8.370  -1.258  0.00  0.00    -0.129 Cl
ENDBRANCH   7   8
ENDBRANCH   4   7
ENDBRANCH   3   4
ENDBRANCH   2   3
BRANCH   2  10
ATOM     10  O   UNL d   1      -3.348  -2.021  -1.563  0.00  0.00    -0.391 OA
ATOM     11  H   UNL d   1      -2.829  -2.225  -2.353  0.00  0.00     0.210 HD
ENDBRANCH   2  10
ENDBRANCH   1   2
BRANCH   1  12
ATOM     12  C   UNL d   1      -1.429  -0.533  -0.113  0.00  0.00     0.179 C 
BRANCH  12  13
ATOM     13  C   UNL d   1       0.002  -0.004   0.002  0.00  0.00     0.175 C 
BRANCH  13  14
ATOM     14  C   UNL d   1      -0.019   1.526   0.010  0.00  0.00     0.266 C 
BRANCH  14  15
ATOM     15  N   UNL d   1       1.368   2.028  -0.000  0.00  0.00    -0.072 N 
ATOM     16  H   UNL d   1       1.844   1.690  -0.845  0.00  0.00     0.277 HD
ATOM     17  H   UNL d   1       1.860   1.681   0.832  0.00  0.00     0.277 HD
BRANCH  15  18
ATOM     18  C   UNL d   1       1.379   3.503   0.008  0.00  0.00     0.247 C 
BRANCH  18  19
ATOM     19  C   UNL d   1       2.828   3.994  -0.004  0.00  0.00     0.142 C 
ATOM     20 CL   UNL d   1       2.851   5.797   0.006  0.00  0.00    -0.129 Cl
ENDBRANCH  18  19
ENDBRANCH  15  18
ENDBRANCH  14  15
ENDBRANCH  13  14
BRANCH  13  21
ATOM     21  O   UNL d   1       0.590  -0.479   1.215  0.00  0.00    -0.391 OA
ATOM     22  H   UNL d   1       0.119  -0.205   2.014  0.00  0.00     0.210 HD
ENDBRANCH  13  21
ENDBRANCH  12  13
BRANCH  12  23
ATOM     23  O   UNL d   1      -2.016  -0.058  -1.326  0.00  0.00    -0.390 OA
ATOM     24  H   UNL d   1      -1.546  -0.332  -2.125  0.00  0.00     0.210 HD
ENDBRANCH  12  23
ENDBRANCH   1  12
BRANCH   1  25
ATOM     25  O   UNL d   1      -0.546  -2.522  -1.164  0.00  0.00    -0.390 OA
ATOM     26  H   UNL d   1      -0.811  -2.235  -2.049  0.00  0.00     0.210 HD
ENDBRANCH   1  25
TORSDOF 15
