REMARK  14 active torsions:
REMARK  status: ('A' for Active; 'I' for Inactive)
REMARK    1  A    between atoms: C_2  and  C_3 
REMARK    2  A    between atoms: C_3  and  C_4 
REMARK    3  A    between atoms: C_4  and  C_5 
REMARK    4  A    between atoms: C_5  and  C_6 
REMARK    5  A    between atoms: C_6  and  C_7 
REMARK    6  A    between atoms: C_7  and  O_9 
REMARK    7  A    between atoms: O_9  and  C_10 
REMARK    8  A    between atoms: C_10  and  C_11 
REMARK    9  A    between atoms: C_11  and  N_37 
REMARK   10  A    between atoms: C_16  and  C_17 
REMARK   11  A    between atoms: C_16  and  N_39 
REMARK   12  A    between atoms: C_17  and  C_18 
REMARK   13  A    between atoms: C_18  and  N_19 
REMARK   14  A    between atoms: C_30  and  C_33 
ROOT
ATOM      1  C   UNL d   1       6.187   2.077  -0.105  0.00  0.00     0.236 C 
ENDROOT
BRANCH   1   2
ATOM      2  C   UNL d   1       4.861   1.528   0.425  0.00  0.00     0.048 C 
BRANCH   2   3
ATOM      3  C   UNL d   1       4.087   0.870  -0.719  0.00  0.00     0.131 C 
BRANCH   3   4
ATOM      4  N   UNL d   1       2.817   0.345  -0.212  0.00  0.00    -0.345 N 
ATOM      5  C   UNL d   1       2.804  -0.964   0.262  0.00  0.00     0.053 A 
ATOM      6  C   UNL d   1       1.636  -1.720   0.304  0.00  0.00     0.032 A 
ATOM      7  C   UNL d   1       3.996  -1.529   0.704  0.00  0.00     0.047 A 
ATOM      8  S   UNL d   1       0.110  -1.032  -0.243  0.00  0.00    -0.086 SA
ATOM      9  C   UNL d   1       1.667  -3.023   0.780  0.00  0.00     0.022 A 
ATOM     10  C   UNL d   1       0.410   0.703  -0.269  0.00  0.00     0.032 A 
ATOM     11  C   UNL d   1       1.712   1.193  -0.240  0.00  0.00     0.052 A 
ATOM     12  C   UNL d   1      -0.663   1.582  -0.313  0.00  0.00     0.021 A 
ATOM     13  C   UNL d   1       1.922   2.568  -0.247  0.00  0.00     0.031 A 
ATOM     14  C   UNL d   1       0.849   3.438  -0.289  0.00  0.00     0.002 A 
ATOM     15  C   UNL d   1      -0.443   2.947  -0.323  0.00  0.00     0.002 A 
ATOM     16  C   UNL d   1       2.858  -3.575   1.216  0.00  0.00     0.017 A 
ATOM     17  C   UNL d   1       4.019  -2.827   1.178  0.00  0.00     0.050 A 
BRANCH  17  18
ATOM     18  C   UNL d   1       5.316  -3.429   1.655  0.00  0.00     0.417 C 
ATOM     19  F   UNL d   1       5.090  -4.742   2.084  0.00  0.00    -0.166 F 
ATOM     20  F   UNL d   1       6.241  -3.434   0.606  0.00  0.00    -0.166 F 
ATOM     21  F   UNL d   1       5.819  -2.671   2.717  0.00  0.00    -0.166 F 
ENDBRANCH  17  18
ENDBRANCH   3   4
ENDBRANCH   2   3
ENDBRANCH   1   2
BRANCH   1  22
ATOM     22  N   UNL d   1       6.931   2.691   1.016  0.00  0.00    -0.068 N 
ATOM     23  C   UNL d   1       8.302   3.035   0.583  0.00  0.00     0.262 C 
ATOM     24  C   UNL d   1       9.065   3.617   1.776  0.00  0.00     0.262 C 
ATOM     25  N   UNL d   1       8.364   4.831   2.243  0.00  0.00    -0.066 N 
ATOM     26  C   UNL d   1       6.993   4.487   2.675  0.00  0.00     0.262 C 
ATOM     27  H   UNL d   1       8.310   5.504   1.469  0.00  0.00     0.280 HD
ATOM     28  C   UNL d   1       6.231   3.905   1.482  0.00  0.00     0.262 C 
ATOM     29  H   UNL d   1       6.985   2.018   1.789  0.00  0.00     0.280 HD
BRANCH  25  30
ATOM     30  C   UNL d   1       9.108   5.446   3.363  0.00  0.00     0.261 C 
BRANCH  30  31
ATOM     31  C   UNL d   1      10.314   6.197   2.797  0.00  0.00     0.206 C 
BRANCH  31  32
ATOM     32  O   UNL d   1       9.854   7.288   1.956  0.00  0.00    -0.320 OA
BRANCH  32  33
ATOM     33  C   UNL d   1      10.796   8.052   1.379  0.00  0.00     0.258 C 
ATOM     34  O   UNL d   1      11.965   7.816   1.570  0.00  0.00    -0.265 OA
BRANCH  33  35
ATOM     35  C   UNL d   1      10.393   9.202   0.493  0.00  0.00     0.111 C 
BRANCH  35  36
ATOM     36  C   UNL d   1      11.648   9.903  -0.033  0.00  0.00     0.010 C 
BRANCH  36  37
ATOM     37  C   UNL d   1      11.239  11.071  -0.933  0.00  0.00     0.000 C 
BRANCH  37  38
ATOM     38  C   UNL d   1      12.493  11.772  -1.459  0.00  0.00    -0.000 C 
BRANCH  38  39
ATOM     39  C   UNL d   1      12.085  12.941  -2.359  0.00  0.00    -0.005 C 
ATOM     40  C   UNL d   1      13.339  13.641  -2.885  0.00  0.00     0.005 C 
ENDBRANCH  38  39
ENDBRANCH  37  38
ENDBRANCH  36  37
ENDBRANCH  35  36
ENDBRANCH  33  35
ENDBRANCH  32  33
ENDBRANCH  31  32
ENDBRANCH  30  31
ENDBRANCH  25  30
ENDBRANCH   1  22
TORSDOF 14
