REMARK  1 active torsions:
REMARK  status: ('A' for Active; 'I' for Inactive)
REMARK    1  A    between atoms: C_19  and  O_22 
ROOT
ATOM      1  C   UNL d   1      -0.013   1.086   0.008  0.00  0.00     0.020 C 
ATOM      2  C   UNL d   1      -0.734   1.583   1.276  0.00  0.00    -0.016 C 
ATOM      3  C   UNL d   1      -2.155   1.054   1.182  0.00  0.00     0.022 C 
ATOM      4  C   UNL d   1      -2.246  -0.415   1.603  0.00  0.00     0.084 C 
ATOM      5  C   UNL d   1      -1.734  -0.487   3.032  0.00  0.00     0.149 C 
ATOM      6  O   UNL d   1      -2.375  -0.999   3.922  0.00  0.00    -0.293 OA
ATOM      7  C   UNL d   1      -0.409   0.104   3.263  0.00  0.00     0.053 C 
ATOM      8  C   UNL d   1       0.041   1.052   2.441  0.00  0.00    -0.068 C 
ATOM      9  C   UNL d   1       1.425   1.607   2.682  0.00  0.00     0.035 C 
ATOM     10  C   UNL d   1       1.431   3.113   2.623  0.00  0.00     0.010 C 
ATOM     11  C   UNL d   1       0.651   3.736   1.476  0.00  0.00    -0.004 C 
ATOM     12  C   UNL d   1      -0.698   3.090   1.220  0.00  0.00     0.002 C 
ATOM     13  C   UNL d   1      -1.793   3.809   1.995  0.00  0.00     0.007 C 
ATOM     14  C   UNL d   1      -2.053   5.163   1.292  0.00  0.00     0.014 C 
ATOM     15  C   UNL d   1      -0.723   5.822   1.024  0.00  0.00     0.003 C 
ATOM     16  C   UNL d   1       0.391   5.189   1.879  0.00  0.00     0.002 C 
ATOM     17  C   UNL d   1       1.582   6.124   1.605  0.00  0.00     0.010 C 
ATOM     18  C   UNL d   1       0.937   7.527   1.470  0.00  0.00     0.052 C 
ATOM     19  C   UNL d   1      -0.599   7.304   1.407  0.00  0.00     0.128 C 
ATOM     20  C   UNL d   1      -1.196   7.594   2.715  0.00  0.00    -0.078 C 
ATOM     21  C   UNL d   1      -1.673   7.825   3.763  0.00  0.00     0.015 C 
ATOM     22  C   UNL d   1      -0.385   5.715  -0.472  0.00  0.00     0.020 C 
ENDROOT
BRANCH  19  23
ATOM     23  O   UNL d   1      -1.173   8.123   0.389  0.00  0.00    -0.377 OA
ATOM     24  H   UNL d   1      -1.126   9.071   0.574  0.00  0.00     0.211 HD
ENDBRANCH  19  23
TORSDOF 1
