REMARK  9 active torsions:
REMARK  status: ('A' for Active; 'I' for Inactive)
REMARK    1  A    between atoms: C_2  and  C_3 
REMARK    2  A    between atoms: C_2  and  N_24 
REMARK    3  A    between atoms: C_3  and  O_4 
REMARK    4  A    between atoms: O_4  and  C_5 
REMARK    5  A    between atoms: C_11  and  C_13 
REMARK    6  A    between atoms: C_11  and  N_24 
REMARK    7  A    between atoms: C_13  and  C_14 
REMARK    8  A    between atoms: C_13  and  O_21 
REMARK    9  A    between atoms: C_17  and  O_20 
ROOT
ATOM      1  C   UNL d   1       2.081   1.258  -1.326  0.00  0.00     0.215 C 
ATOM      2  C   UNL d   1       0.804   1.512  -2.131  0.00  0.00     0.043 C 
ENDROOT
BRANCH   1   3
ATOM      3  C   UNL d   1       1.854   1.663   0.132  0.00  0.00     0.181 C 
BRANCH   3   4
ATOM      4  C   UNL d   1       3.111   1.412   0.924  0.00  0.00    -0.028 A 
ATOM      5  C   UNL d   1       3.964   2.461   1.214  0.00  0.00     0.012 A 
ATOM      6  C   UNL d   1       5.117   2.234   1.940  0.00  0.00     0.037 A 
ATOM      7  C   UNL d   1       5.418   0.953   2.379  0.00  0.00     0.065 A 
ATOM      8  C   UNL d   1       4.561  -0.097   2.087  0.00  0.00     0.037 A 
ATOM      9  C   UNL d   1       3.406   0.136   1.365  0.00  0.00     0.012 A 
BRANCH   7  10
ATOM     10  O   UNL d   1       6.552   0.728   3.095  0.00  0.00    -0.361 OA
ATOM     11  H   UNL d   1       6.437   0.815   4.051  0.00  0.00     0.217 HD
ENDBRANCH   7  10
ENDBRANCH   3   4
BRANCH   3  12
ATOM     12  O   UNL d   1       0.784   0.890   0.679  0.00  0.00    -0.389 OA
ATOM     13  H   UNL d   1       0.942  -0.064   0.669  0.00  0.00     0.210 HD
ENDBRANCH   3  12
ENDBRANCH   1   3
BRANCH   1  14
ATOM     14  N   UNL d   1       2.418  -0.176  -1.388  0.00  0.00    -0.063 N 
ATOM     15  H   UNL d   1       2.383  -0.574  -0.441  0.00  0.00     0.278 HD
ATOM     16  H   UNL d   1       1.738  -0.659  -1.987  0.00  0.00     0.278 HD
BRANCH  14  17
ATOM     17  C   UNL d   1       3.772  -0.361  -1.943  0.00  0.00     0.206 C 
ATOM     18  C   UNL d   1       3.737  -0.157  -3.459  0.00  0.00     0.042 C 
BRANCH  17  19
ATOM     19  C   UNL d   1       4.254  -1.779  -1.630  0.00  0.00     0.208 C 
BRANCH  19  20
ATOM     20  O   UNL d   1       3.427  -2.724  -2.312  0.00  0.00    -0.349 OA
BRANCH  20  21
ATOM     21  C   UNL d   1       3.722  -4.040  -2.140  0.00  0.00     0.068 A 
ATOM     22  C   UNL d   1       2.961  -5.011  -2.773  0.00  0.00     0.037 A 
ATOM     23  C   UNL d   1       3.263  -6.348  -2.596  0.00  0.00     0.003 A 
ATOM     24  C   UNL d   1       4.322  -6.717  -1.789  0.00  0.00     0.000 A 
ATOM     25  C   UNL d   1       5.083  -5.751  -1.157  0.00  0.00     0.003 A 
ATOM     26  C   UNL d   1       4.789  -4.413  -1.335  0.00  0.00     0.037 A 
ENDBRANCH  20  21
ENDBRANCH  19  20
ENDBRANCH  17  19
ENDBRANCH  14  17
ENDBRANCH   1  14
TORSDOF 9
