REMARK  4 active torsions:
REMARK  status: ('A' for Active; 'I' for Inactive)
REMARK    1  A    between atoms: C_19  and  C_20 
REMARK    2  A    between atoms: C_19  and  O_24 
REMARK    3  A    between atoms: C_20  and  C_21 
REMARK    4  A    between atoms: C_21  and  C_22 
ROOT
ATOM      1  C   UNL d   1       1.380   1.422  -2.506  0.00  0.00     0.021 C 
ATOM      2  C   UNL d   1      -0.102   1.040  -2.491  0.00  0.00    -0.012 C 
ATOM      3  C   UNL d   1      -0.239  -0.484  -2.511  0.00  0.00     0.022 C 
ATOM      4  C   UNL d   1       0.372  -1.017  -3.811  0.00  0.00     0.084 C 
ATOM      5  C   UNL d   1      -0.310  -0.357  -4.982  0.00  0.00     0.149 C 
ATOM      6  O   UNL d   1      -0.385  -0.944  -6.043  0.00  0.00    -0.293 OA
ATOM      7  C   UNL d   1      -0.861   0.928  -4.858  0.00  0.00     0.058 C 
ATOM      8  C   UNL d   1      -0.787   1.630  -3.698  0.00  0.00    -0.046 C 
ATOM      9  C   UNL d   1      -1.387   2.960  -3.608  0.00  0.00     0.004 C 
ATOM     10  C   UNL d   1      -1.343   3.662  -2.478  0.00  0.00    -0.021 C 
ATOM     11  C   UNL d   1      -0.690   3.124  -1.233  0.00  0.00     0.018 C 
ATOM     12  C   UNL d   1      -0.761   1.597  -1.227  0.00  0.00     0.006 C 
ATOM     13  C   UNL d   1      -0.013   1.086   0.008  0.00  0.00     0.007 C 
ATOM     14  C   UNL d   1      -0.735   1.582   1.258  0.00  0.00     0.013 C 
ATOM     15  C   UNL d   1      -0.739   3.111   1.316  0.00  0.00    -0.009 C 
ATOM     16  C   UNL d   1      -1.303   3.711   0.015  0.00  0.00     0.005 C 
ATOM     17  C   UNL d   1      -2.814   3.433   0.119  0.00  0.00     0.009 C 
ATOM     18  C   UNL d   1      -3.126   3.690   1.611  0.00  0.00     0.039 C 
ATOM     19  C   UNL d   1      -1.800   3.514   2.374  0.00  0.00     0.066 C 
ATOM     20  C   UNL d   1       0.641   3.682   1.649  0.00  0.00     0.019 C 
ENDROOT
BRANCH  19  21
ATOM     21  C   UNL d   1      -1.940   2.410   3.424  0.00  0.00     0.049 C 
BRANCH  21  22
ATOM     22  C   UNL d   1      -3.102   2.744   4.363  0.00  0.00     0.116 C 
BRANCH  22  23
ATOM     23  C   UNL d   1      -3.240   1.657   5.397  0.00  0.00     0.172 C 
ATOM     24  O   UNL d   1      -2.487   0.712   5.385  0.00  0.00    -0.648 OA
ATOM     25  O   UNL d   1      -4.200   1.738   6.332  0.00  0.00    -0.648 OA
ENDBRANCH  22  23
ENDBRANCH  21  22
ENDBRANCH  19  21
BRANCH  19  26
ATOM     26  O   UNL d   1      -1.428   4.743   3.001  0.00  0.00    -0.389 OA
ATOM     27  H   UNL d   1      -2.066   5.060   3.655  0.00  0.00     0.210 HD
ENDBRANCH  19  26
TORSDOF 4
