REMARK  11 active torsions:
REMARK  status: ('A' for Active; 'I' for Inactive)
REMARK    1  A    between atoms: C_2  and  C_3 
REMARK    2  A    between atoms: C_2  and  N_28 
REMARK    3  A    between atoms: C_3  and  C_4 
REMARK    4  A    between atoms: C_7  and  O_10 
REMARK    5  A    between atoms: C_12  and  C_13 
REMARK    6  A    between atoms: C_12  and  N_28 
REMARK    7  A    between atoms: C_13  and  C_14 
REMARK    8  A    between atoms: C_13  and  O_24 
REMARK    9  A    between atoms: C_17  and  O_23 
REMARK   10  A    between atoms: C_18  and  N_20 
REMARK   11  A    between atoms: N_20  and  C_21 
ROOT
ATOM      1  C   UNL d   1       0.437  -1.832   1.535  0.00  0.00     0.269 C 
ENDROOT
BRANCH   1   2
ATOM      2  C   UNL d   1       1.307  -2.308   2.701  0.00  0.00     0.176 C 
BRANCH   2   3
ATOM      3  C   UNL d   1       0.968  -3.739   3.029  0.00  0.00    -0.026 A 
ATOM      4  C   UNL d   1       1.772  -4.762   2.563  0.00  0.00     0.042 A 
ATOM      5  C   UNL d   1       1.464  -6.079   2.869  0.00  0.00     0.068 A 
ATOM      6  C   UNL d   1       0.338  -6.368   3.636  0.00  0.00     0.092 A 
ATOM      7  C   UNL d   1      -0.467  -5.337   4.094  0.00  0.00     0.039 A 
ATOM      8  C   UNL d   1      -0.151  -4.026   3.790  0.00  0.00     0.012 A 
BRANCH   5   9
ATOM      9  N   UNL d   1       2.282  -7.118   2.403  0.00  0.00    -0.332 N 
ATOM     10  H   UNL d   1       2.418  -7.909   2.947  0.00  0.00     0.168 HD
BRANCH   9  11
ATOM     11  C   UNL d   1       2.878  -7.017   1.198  0.00  0.00     0.353 C 
ATOM     12  O   UNL d   1       2.773  -5.996   0.553  0.00  0.00    -0.283 OA
ENDBRANCH   9  11
ENDBRANCH   5   9
BRANCH   6  13
ATOM     13  O   UNL d   1       0.028  -7.658   3.934  0.00  0.00    -0.358 OA
ATOM     14  H   UNL d   1      -0.548  -8.084   3.284  0.00  0.00     0.217 HD
ENDBRANCH   6  13
ENDBRANCH   2   3
BRANCH   2  15
ATOM     15  O   UNL d   1       1.062  -1.486   3.844  0.00  0.00    -0.389 OA
ATOM     16  H   UNL d   1       0.144  -1.499   4.149  0.00  0.00     0.210 HD
ENDBRANCH   2  15
ENDBRANCH   1   2
BRANCH   1  17
ATOM     17  N   UNL d   1       0.857  -0.473   1.142  0.00  0.00    -0.068 N 
ATOM     18  H   UNL d   1       0.746   0.161   1.942  0.00  0.00     0.277 HD
ATOM     19  H   UNL d   1       1.843  -0.493   0.856  0.00  0.00     0.277 HD
BRANCH  17  20
ATOM     20  C   UNL d   1       0.035   0.012   0.018  0.00  0.00     0.186 C 
ATOM     21  C   UNL d   1       0.628  -0.486  -1.302  0.00  0.00     0.040 C 
BRANCH  20  22
ATOM     22  C   UNL d   1       0.024   1.542   0.027  0.00  0.00     0.071 C 
BRANCH  22  23
ATOM     23  C   UNL d   1      -0.671   2.031   1.271  0.00  0.00    -0.056 A 
ATOM     24  C   UNL d   1       0.056   2.260   2.424  0.00  0.00     0.010 A 
ATOM     25  C   UNL d   1      -0.579   2.709   3.566  0.00  0.00     0.037 A 
ATOM     26  C   UNL d   1      -1.948   2.931   3.554  0.00  0.00     0.068 A 
ATOM     27  C   UNL d   1      -2.676   2.701   2.396  0.00  0.00     0.037 A 
ATOM     28  C   UNL d   1      -2.035   2.257   1.255  0.00  0.00     0.010 A 
BRANCH  26  29
ATOM     29  O   UNL d   1      -2.575   3.372   4.676  0.00  0.00    -0.356 OA
ATOM     30  C   UNL d   1      -3.987   3.579   4.592  0.00  0.00     0.210 C 
ENDBRANCH  26  29
ENDBRANCH  22  23
ENDBRANCH  20  22
ENDBRANCH  17  20
ENDBRANCH   1  17
TORSDOF 11
