REMARK  5 active torsions:
REMARK  status: ('A' for Active; 'I' for Inactive)
REMARK    1  A    between atoms: CA_3  and  C_21 
REMARK    2  A    between atoms: CA_7  and  N_10 
REMARK       I    between atoms: N_10  and  C_11 
REMARK    3  A    between atoms: C_11  and  C_13 
REMARK    4  A    between atoms: C_13  and  C_14 
REMARK    5  A    between atoms: C_13  and  C_19 
ROOT
ATOM      1  C   UNL d   1      -1.916   7.925   5.072  0.00  0.00     0.029 C 
ATOM      2  C   UNL d   1      -2.256   6.450   5.299  0.00  0.00     0.029 C 
ATOM      3  CA  UNL d   1      -3.244   5.920   4.224  0.00  0.00     0.186 C 
ATOM      4  N   UNL d   1      -2.555   5.573   2.977  0.00  0.00    -0.219 NA
ATOM      5  C   UNL d   1      -1.130   5.189   3.113  0.00  0.00     0.160 C 
ATOM      6  S   UNL d   1      -0.786   5.346   4.912  0.00  0.00    -0.135 SA
ATOM      7  CA  UNL d   1      -1.548   3.783   2.677  0.00  0.00     0.199 C 
ATOM      8  C   UNL d   1      -2.914   4.381   2.408  0.00  0.00     0.227 C 
ATOM      9  O   UNL d   1      -3.928   3.965   1.889  0.00  0.00    -0.277 OA
ATOM     10  C   UNL d   1      -2.785   6.212   6.715  0.00  0.00     0.029 C 
ENDROOT
BRANCH   7  11
ATOM     11  N   UNL d   1      -0.863   3.311   1.472  0.00  0.00    -0.345 N 
ATOM     12  C   UNL d   1      -0.724   1.989   1.250  0.00  0.00     0.237 C 
ATOM     13  O   UNL d   1      -1.166   1.190   2.049  0.00  0.00    -0.272 OA
ATOM     14  H   UNL d   1      -0.509   3.950   0.833  0.00  0.00     0.163 HD
BRANCH  12  15
ATOM     15  C   UNL d   1      -0.018   1.503   0.010  0.00  0.00     0.212 C 
BRANCH  15  16
ATOM     16  C   UNL d   1       0.002  -0.004   0.002  0.00  0.00    -0.028 A 
ATOM     17  C   UNL d   1       0.610  -0.689   1.001  0.00  0.00     0.058 A 
ATOM     18  S   UNL d   1       0.339  -2.383   0.505  0.00  0.00    -0.113 SA
ATOM     19  C   UNL d   1      -0.557  -2.063  -1.005  0.00  0.00     0.050 A 
ATOM     20  C   UNL d   1      -0.594  -0.708  -1.028  0.00  0.00     0.016 A 
ENDBRANCH  15  16
BRANCH  15  21
ATOM     21  C   UNL d   1       1.395   2.024  -0.000  0.00  0.00     0.191 C 
ATOM     22  O   UNL d   1       2.324   1.252  -0.013  0.00  0.00    -0.647 OA
ATOM     23  O   UNL d   1       1.623   3.347   0.004  0.00  0.00    -0.647 OA
ENDBRANCH  15  21
ENDBRANCH  12  15
ENDBRANCH   7  11
BRANCH   3  24
ATOM     24  C   UNL d   1      -4.275   6.981   3.937  0.00  0.00     0.193 C 
ATOM     25  O   UNL d   1      -4.203   7.636   2.924  0.00  0.00    -0.647 OA
ATOM     26  OXT UNL d   1      -5.273   7.199   4.807  0.00  0.00    -0.647 OA
ENDBRANCH   3  24
TORSDOF 5
