REMARK  3 active torsions:
REMARK  status: ('A' for Active; 'I' for Inactive)
REMARK    1  A    between atoms: C_2  and  C_3 
REMARK    2  A    between atoms: C_2  and  C_20 
REMARK    3  A    between atoms: C_11  and  C_13 
ROOT
ATOM      1  C   UNL d   1       3.272  -1.779  -0.040  0.00  0.00    -0.042 A 
ATOM      2  C   UNL d   1       4.057  -0.635  -0.041  0.00  0.00     0.011 A 
ATOM      3  C   UNL d   1       3.474   0.615  -0.028  0.00  0.00     0.040 A 
ATOM      4  C   UNL d   1       2.092   0.732  -0.014  0.00  0.00     0.104 A 
ATOM      5  C   UNL d   1       1.294  -0.423  -0.013  0.00  0.00     0.069 A 
ATOM      6  C   UNL d   1       1.899  -1.682  -0.025  0.00  0.00     0.040 A 
ATOM      7  N   UNL d   1       0.002  -0.004   0.002  0.00  0.00    -0.334 N 
ATOM      8  HN  UNL d   1      -0.819  -0.609   0.007  1.00  0.00     0.168 HD
ATOM      9  C   UNL d   1      -0.016   1.305   0.009  0.00  0.00     0.159 A 
ATOM     10  O   UNL d   1       1.243   1.783  -0.000  0.00  0.00    -0.291 OA
ENDROOT
BRANCH   9  11
ATOM     11  C   UNL d   1      -1.238   2.135   0.020  0.00  0.00     0.015 A 
ATOM     12  C   UNL d   1      -1.139   3.528   0.027  0.00  0.00     0.017 A 
ATOM     13  C   UNL d   1      -2.283   4.298   0.037  0.00  0.00     0.025 A 
ATOM     14  C   UNL d   1      -3.529   3.692   0.039  0.00  0.00     0.034 A 
ATOM     15  C   UNL d   1      -3.633   2.311   0.033  0.00  0.00     0.025 A 
ATOM     16 CL   UNL d   1      -4.964   4.668   0.051  0.00  0.00    -0.084 Cl
ATOM     17  C   UNL d   1      -2.496   1.531   0.017  0.00  0.00     0.017 A 
ENDBRANCH   9  11
BRANCH   1  18
ATOM     18  C   UNL d   1       3.927  -3.136  -0.053  0.00  0.00     0.115 C 
ATOM     19  C   UNL d   1       4.810  -3.289   1.187  0.00  0.00     0.026 C 
BRANCH  18  20
ATOM     20  C   UNL d   1       4.773  -3.274  -1.292  0.00  0.00     0.181 C 
ATOM     21  O   UNL d   1       4.838  -2.363  -2.083  0.00  0.00    -0.647 OA
ATOM     22  O   UNL d   1       5.455  -4.408  -1.517  0.00  0.00    -0.647 OA
ENDBRANCH  18  20
ENDBRANCH   1  18
TORSDOF 3
