REMARK  5 active torsions:
REMARK  status: ('A' for Active; 'I' for Inactive)
REMARK    1  A    between atoms: C_8  and  C_23 
REMARK    2  A    between atoms: C_8  and  O_27 
REMARK    3  A    between atoms: C_11  and  O_21 
REMARK    4  A    between atoms: C_23  and  C_25 
REMARK    5  A    between atoms: C_25  and  O_26 
ROOT
ATOM      1  C   UNL d   1      -2.997   1.133   3.003  0.00  0.00     0.015 C 
ATOM      2  C   UNL d   1      -1.787   2.002   3.334  0.00  0.00     0.012 C 
ATOM      3  C   UNL d   1      -0.591   1.584   2.474  0.00  0.00     0.014 C 
ATOM      4  C   UNL d   1      -0.797   2.157   1.078  0.00  0.00    -0.001 C 
ATOM      5  C   UNL d   1      -0.010   1.493  -0.006  0.00  0.00     0.002 C 
ATOM      6  C   UNL d   1       0.047  -0.038  -0.034  0.00  0.00     0.009 C 
ATOM      7  C   UNL d   1       1.180  -0.310  -1.063  0.00  0.00     0.047 C 
ATOM      8  C   UNL d   1       2.034   0.982  -1.129  0.00  0.00     0.128 C 
ATOM      9  C   UNL d   1       1.484   1.868  -0.002  0.00  0.00     0.001 C 
ATOM     10  C   UNL d   1       1.600   3.361  -0.190  0.00  0.00     0.045 C 
ATOM     11  C   UNL d   1       0.904   4.060   1.002  0.00  0.00     0.124 C 
ATOM     12  C   UNL d   1      -0.554   3.667   1.100  0.00  0.00     0.035 C 
ATOM     13  C   UNL d   1      -1.338   4.341   2.195  0.00  0.00     0.004 C 
ATOM     14  C   UNL d   1      -2.117   3.455   3.104  0.00  0.00    -0.060 C 
ATOM     15  C   UNL d   1      -3.135   3.952   3.828  0.00  0.00     0.059 C 
ATOM     16  C   UNL d   1      -3.637   5.315   3.556  0.00  0.00     0.172 C 
ATOM     17  O   UNL d   1      -4.430   5.860   4.322  0.00  0.00    -0.289 OA
ATOM     18  C   UNL d   1      -3.159   6.008   2.341  0.00  0.00     0.052 C 
ATOM     19  C   UNL d   1      -2.127   5.501   1.660  0.00  0.00    -0.009 C 
ATOM     20  C   UNL d   1      -0.330   4.997   3.143  0.00  0.00     0.025 C 
ATOM     21  C   UNL d   1       2.194   1.438   1.285  0.00  0.00     0.019 C 
ENDROOT
BRANCH   8  22
ATOM     22  C   UNL d   1       1.891   1.640  -2.472  0.00  0.00     0.184 C 
ATOM     23  O   UNL d   1       1.064   2.504  -2.635  0.00  0.00    -0.292 OA
BRANCH  22  24
ATOM     24  C   UNL d   1       2.779   1.220  -3.615  0.00  0.00     0.245 C 
BRANCH  24  25
ATOM     25  O   UNL d   1       2.452   1.985  -4.777  0.00  0.00    -0.393 OA
ATOM     26  H   UNL d   1       2.986   1.768  -5.554  0.00  0.00     0.209 HD
ENDBRANCH  24  25
ENDBRANCH  22  24
ENDBRANCH   8  22
BRANCH   8  27
ATOM     27  O   UNL d   1       3.407   0.675  -0.870  0.00  0.00    -0.381 OA
ATOM     28  H   UNL d   1       3.802   0.067  -1.510  0.00  0.00     0.211 HD
ENDBRANCH   8  27
BRANCH  11  29
ATOM     29  O   UNL d   1       1.004   5.470   0.740  0.00  0.00    -0.395 OA
ATOM     30  H   UNL d   1       1.913   5.794   0.668  0.00  0.00     0.210 HD
ENDBRANCH  11  29
TORSDOF 5
