REMARK  4 active torsions:
REMARK  status: ('A' for Active; 'I' for Inactive)
REMARK    1  A    between atoms: C_8  and  O_25 
REMARK    2  A    between atoms: C_10  and  C_11 
REMARK    3  A    between atoms: C_15  and  O_23 
REMARK    4  A    between atoms: C_16  and  O_21 
ROOT
ATOM      1  C   UNL d   1      -0.755   5.538  -0.964  0.00  0.00     0.270 C 
ATOM      2  C   UNL d   1      -1.812   6.298  -3.008  0.00  0.00     0.240 C 
ATOM      3  C   UNL d   1      -3.114   6.168  -3.798  0.00  0.00     0.067 C 
ATOM      4  C   UNL d   1      -4.259   6.743  -3.004  0.00  0.00    -0.043 A 
ATOM      5  C   UNL d   1      -5.439   7.040  -3.668  0.00  0.00     0.047 A 
ATOM      6  C   UNL d   1      -6.520   7.567  -2.981  0.00  0.00     0.108 A 
ATOM      7  C   UNL d   1      -6.419   7.800  -1.613  0.00  0.00     0.139 A 
ATOM      8  C   UNL d   1      -5.236   7.503  -0.952  0.00  0.00     0.113 A 
ATOM      9  C   UNL d   1      -4.154   6.974  -1.649  0.00  0.00     0.018 A 
ATOM     10  C   UNL d   1      -2.891   6.671  -0.886  0.00  0.00     0.258 C 
ATOM     11  O   UNL d   1      -7.604   8.315  -1.169  0.00  0.00    -0.320 OA
ATOM     12  C   UNL d   1      -8.564   8.013  -2.199  0.00  0.00     0.352 C 
ATOM     13  O   UNL d   1      -7.767   7.936  -3.396  0.00  0.00    -0.323 OA
ATOM     14  N   UNL d   1      -2.046   5.746  -1.659  0.00  0.00    -0.063 N 
ATOM     15  H   UNL d   1      -2.528   4.843  -1.745  0.00  0.00     0.280 HD
ENDROOT
BRANCH  10  16
ATOM     16  C   UNL d   1      -3.252   6.015   0.448  0.00  0.00     0.202 A 
ATOM     17  O   UNL d   1      -3.934   4.752   0.215  0.00  0.00    -0.305 OA
ATOM     18  C   UNL d   1      -3.215   3.758   0.761  0.00  0.00     0.297 A 
ATOM     19  C   UNL d   1      -2.002   4.296   1.396  0.00  0.00     0.084 A 
ATOM     20  O   UNL d   1      -3.522   2.582   0.735  0.00  0.00    -0.259 OA
ATOM     21  C   UNL d   1      -1.998   5.684   1.219  0.00  0.00    -0.007 A 
ATOM     22  C   UNL d   1      -0.946   3.689   2.087  0.00  0.00     0.118 A 
ATOM     23  C   UNL d   1      -0.971   6.447   1.718  0.00  0.00     0.014 A 
ATOM     24  C   UNL d   1       0.074   5.845   2.403  0.00  0.00     0.040 A 
ATOM     25  C   UNL d   1       0.086   4.473   2.592  0.00  0.00     0.102 A 
BRANCH  25  26
ATOM     26  O   UNL d   1       1.112   3.891   3.270  0.00  0.00    -0.353 OA
ATOM     27  C   UNL d   1       2.138   4.756   3.761  0.00  0.00     0.210 C 
ENDBRANCH  25  26
BRANCH  22  28
ATOM     28  O   UNL d   1      -0.932   2.344   2.268  0.00  0.00    -0.352 OA
ATOM     29  C   UNL d   1      -0.290   1.560   1.261  0.00  0.00     0.210 C 
ENDBRANCH  22  28
ENDBRANCH  10  16
BRANCH   8  30
ATOM     30  O   UNL d   1      -5.134   7.729   0.386  0.00  0.00    -0.352 OA
ATOM     31  C   UNL d   1      -4.783   9.053   0.795  0.00  0.00     0.210 C 
ENDBRANCH   8  30
TORSDOF 4
