REMARK  12 active torsions:
REMARK  status: ('A' for Active; 'I' for Inactive)
REMARK    1  A    between atoms: C_1  and  C_2 
REMARK    2  A    between atoms: C_1  and  N_19 
REMARK    3  A    between atoms: C_2  and  O_3 
REMARK    4  A    between atoms: O_3  and  N_4 
REMARK    5  A    between atoms: C_7  and  C_8 
REMARK    6  A    between atoms: C_7  and  N_19 
REMARK    7  A    between atoms: C_8  and  O_9 
REMARK    8  A    between atoms: O_9  and  N_10 
REMARK    9  A    between atoms: C_13  and  C_14 
REMARK   10  A    between atoms: C_13  and  N_19 
REMARK   11  A    between atoms: C_14  and  O_15 
REMARK   12  A    between atoms: O_15  and  N_16 
ROOT
ATOM      1  N   UNL d   1      -3.603   2.763   1.121  0.00  0.00    -0.065 N 
ATOM      2  H   UNL d   1      -2.687   3.221   1.052  0.00  0.00     0.280 HD
ENDROOT
BRANCH   1   3
ATOM      3  C   UNL d   1      -3.794   1.893  -0.059  0.00  0.00     0.263 C 
BRANCH   3   4
ATOM      4  C   UNL d   1      -5.226   1.354  -0.101  0.00  0.00     0.235 C 
BRANCH   4   5
ATOM      5  O   UNL d   1      -5.430   0.457   0.992  0.00  0.00    -0.220 OA
BRANCH   5   6
ATOM      6  N   UNL d   1      -6.731  -0.101   1.044  0.00  0.00     0.004 N 
ATOM      7  O   UNL d   1      -7.557   0.200   0.201  0.00  0.00    -0.511 OA
ATOM      8  O   UNL d   1      -7.022  -0.885   1.929  0.00  0.00    -0.511 OA
ENDBRANCH   5   6
ENDBRANCH   4   5
ENDBRANCH   3   4
ENDBRANCH   1   3
BRANCH   1   9
ATOM      9  C   UNL d   1      -4.657   3.798   1.161  0.00  0.00     0.263 C 
BRANCH   9  10
ATOM     10  C   UNL d   1      -4.378   4.826   0.062  0.00  0.00     0.235 C 
BRANCH  10  11
ATOM     11  O   UNL d   1      -4.549   4.212  -1.218  0.00  0.00    -0.220 OA
BRANCH  11  12
ATOM     12  N   UNL d   1      -4.314   5.083  -2.309  0.00  0.00     0.004 N 
ATOM     13  O   UNL d   1      -3.996   6.241  -2.108  0.00  0.00    -0.511 OA
ATOM     14  O   UNL d   1      -4.429   4.673  -3.451  0.00  0.00    -0.511 OA
ENDBRANCH  11  12
ENDBRANCH  10  11
ENDBRANCH   9  10
ENDBRANCH   1   9
BRANCH   1  15
ATOM     15  C   UNL d   1      -3.643   1.953   2.357  0.00  0.00     0.263 C 
BRANCH  15  16
ATOM     16  C   UNL d   1      -2.436   1.014   2.372  0.00  0.00     0.235 C 
BRANCH  16  17
ATOM     17  O   UNL d   1      -1.233   1.785   2.413  0.00  0.00    -0.220 OA
BRANCH  17  18
ATOM     18  N   UNL d   1      -0.050   1.006   2.430  0.00  0.00     0.004 N 
ATOM     19  O   UNL d   1      -0.121  -0.210   2.410  0.00  0.00    -0.511 OA
ATOM     20  O   UNL d   1       1.038   1.552   2.464  0.00  0.00    -0.511 OA
ENDBRANCH  17  18
ENDBRANCH  16  17
ENDBRANCH  15  16
ENDBRANCH   1  15
TORSDOF 12
