REMARK  3 active torsions:
REMARK  status: ('A' for Active; 'I' for Inactive)
REMARK    1  A    between atoms: CA_3  and  C_23 
REMARK    2  A    between atoms: CA_7  and  N_10 
REMARK    3  A    between atoms: CA_13  and  C_17 
ROOT
ATOM      1  N   UNL d   1      -1.075   3.040   0.649  0.00  0.00    -0.302 N 
ATOM      2  C   UNL d   1      -0.037   2.768   1.466  0.00  0.00     0.258 C 
ATOM      3  O   UNL d   1       0.623   3.587   2.069  0.00  0.00    -0.271 OA
ATOM      4  CA  UNL d   1       0.163   1.269   1.505  0.00  0.00     0.313 C 
ATOM      5  C   UNL d   1      -1.610   1.788   0.099  0.00  0.00     0.197 C 
ATOM      6  C   UNL d   1      -1.114   1.589  -1.335  0.00  0.00     0.070 C 
ATOM      7  C   UNL d   1      -3.139   1.810   0.128  0.00  0.00     0.070 C 
ATOM      8  N   UNL d   1      -1.082   0.744   0.962  0.00  0.00    -0.032 N 
ATOM      9  H1  UNL d   1      -1.743   0.537   1.719  0.00  0.00     0.281 HD
ATOM     10  H2  UNL d   1      -0.903  -0.110   0.420  0.00  0.00     0.281 HD
ENDROOT
BRANCH   1  11
ATOM     11  CA  UNL d   1      -1.589   4.380   0.353  0.00  0.00     0.204 A 
ATOM     12  C   UNL d   1      -2.084   5.137   1.594  0.00  0.00     0.161 A 
ATOM     13  N   UNL d   1      -0.991   6.105   1.328  0.00  0.00    -0.219 NA
ATOM     14  S   UNL d   1      -3.603   6.125   1.266  0.00  0.00    -0.135 SA
ATOM     15  CA  UNL d   1      -1.416   7.495   1.163  0.00  0.00     0.186 C 
ATOM     16  C   UNL d   1      -0.508   5.436   0.247  0.00  0.00     0.227 A 
ATOM     17  C   UNL d   1      -2.784   7.550   0.419  0.00  0.00     0.029 C 
ATOM     18  C   UNL d   1      -2.621   7.297  -1.081  0.00  0.00     0.029 C 
ATOM     19  C   UNL d   1      -3.521   8.864   0.686  0.00  0.00     0.029 C 
ATOM     20  O   UNL d   1       0.424   5.614  -0.508  0.00  0.00    -0.277 OA
BRANCH  15  21
ATOM     21  C   UNL d   1      -0.381   8.242   0.362  0.00  0.00     0.193 C 
ATOM     22  O   UNL d   1       0.692   7.735   0.138  0.00  0.00    -0.647 OA
ATOM     23  OXT UNL d   1      -0.651   9.473  -0.102  0.00  0.00    -0.647 OA
ENDBRANCH  15  21
ENDBRANCH   1  11
BRANCH   4  24
ATOM     24  C   UNL d   1       1.326   0.872   0.633  0.00  0.00    -0.018 A 
ATOM     25  C   UNL d   1       2.308   1.796   0.328  0.00  0.00     0.010 A 
ATOM     26  C   UNL d   1       3.375   1.432  -0.471  0.00  0.00     0.001 A 
ATOM     27  C   UNL d   1       3.461   0.144  -0.966  0.00  0.00     0.000 A 
ATOM     28  C   UNL d   1       2.480  -0.780  -0.660  0.00  0.00     0.001 A 
ATOM     29  C   UNL d   1       1.415  -0.418   0.144  0.00  0.00     0.010 A 
ENDBRANCH   4  24
TORSDOF 3
