REMARK  2 active torsions:
REMARK  status: ('A' for Active; 'I' for Inactive)
REMARK    1  A    between atoms: C_2  and  C_3 
REMARK    2  A    between atoms: C_20  and  O_23 
ROOT
ATOM      1  C   UNL d   1      -0.554   1.965   1.234  0.00  0.00     0.024 C 
ATOM      2  C   UNL d   1      -1.583   0.889   1.176  0.00  0.00    -0.012 C 
ATOM      3  C   UNL d   1      -2.290   0.632   2.289  0.00  0.00     0.005 C 
ATOM      4  C   UNL d   1      -2.071   1.328   3.508  0.00  0.00    -0.047 C 
ATOM      5  C   UNL d   1      -2.880   1.068   4.570  0.00  0.00    -0.045 C 
ATOM      6  C   UNL d   1      -4.057   0.144   4.364  0.00  0.00     0.047 C 
ATOM      7  C   UNL d   1      -4.311  -0.684   5.620  0.00  0.00     0.087 C 
ATOM      8  C   UNL d   1      -4.295   0.210   6.832  0.00  0.00     0.150 C 
ATOM      9  O   UNL d   1      -5.081   0.017   7.739  0.00  0.00    -0.293 OA
ATOM     10  C   UNL d   1      -3.377   1.262   6.915  0.00  0.00     0.057 C 
ATOM     11  C   UNL d   1      -2.637   1.632   5.830  0.00  0.00    -0.048 C 
ATOM     12  C   UNL d   1      -1.527   2.638   6.019  0.00  0.00     0.040 C 
ATOM     13  C   UNL d   1      -0.383   2.292   5.059  0.00  0.00     0.014 C 
ATOM     14  C   UNL d   1      -0.929   2.314   3.634  0.00  0.00     0.025 C 
ATOM     15  C   UNL d   1       0.126   1.889   2.631  0.00  0.00     0.010 C 
ATOM     16  C   UNL d   1       1.308   2.845   2.446  0.00  0.00     0.010 C 
ATOM     17  C   UNL d   1       1.822   2.490   1.023  0.00  0.00     0.053 C 
ATOM     18  C   UNL d   1       0.620   1.867   0.269  0.00  0.00     0.131 C 
ATOM     19  C   UNL d   1       0.339   2.627  -0.960  0.00  0.00    -0.078 C 
ATOM     20  C   UNL d   1       0.114   3.234  -1.940  0.00  0.00     0.015 C 
ENDROOT
BRANCH  18  21
ATOM     21  O   UNL d   1       0.889   0.499  -0.047  0.00  0.00    -0.376 OA
ATOM     22  H   UNL d   1       1.653   0.372  -0.625  0.00  0.00     0.211 HD
ENDBRANCH  18  21
BRANCH   1  23
ATOM     23  C   UNL d   1      -1.240   3.323   1.071  0.00  0.00     0.013 C 
ATOM     24  C   UNL d   1      -2.232   3.257  -0.092  0.00  0.00     0.006 C 
ENDBRANCH   1  23
TORSDOF 2
