REMARK  8 active torsions:
REMARK  status: ('A' for Active; 'I' for Inactive)
REMARK    1  A    between atoms: C_2  and  C_3 
REMARK    2  A    between atoms: C_3  and  C_6 
REMARK    3  A    between atoms: C_6  and  O_8 
REMARK    4  A    between atoms: O_8  and  C_9 
REMARK    5  A    between atoms: C_15  and  C_20 
REMARK    6  A    between atoms: C_20  and  C_21 
REMARK    7  A    between atoms: C_21  and  C_22 
REMARK    8  A    between atoms: C_24  and  O_29 
ROOT
ATOM      1  C   UNL d   1      -2.267   5.852   1.882  0.00  0.00     0.141 C 
ATOM      2  C   UNL d   1      -2.638   4.591   2.660  0.00  0.00     0.041 C 
ATOM      3  C   UNL d   1      -2.267   4.807   4.134  0.00  0.00     0.007 C 
ATOM      4  C   UNL d   1      -0.776   5.014   4.204  0.00  0.00    -0.015 C 
ATOM      5  C   UNL d   1      -0.129   5.616   3.223  0.00  0.00    -0.055 C 
ATOM      6  C   UNL d   1      -0.800   6.184   2.007  0.00  0.00     0.052 C 
ATOM      7  C   UNL d   1      -0.002   5.751   0.776  0.00  0.00     0.004 C 
ATOM      8  C   UNL d   1       1.407   6.339   0.875  0.00  0.00     0.009 C 
ATOM      9  C   UNL d   1       2.027   6.072   2.213  0.00  0.00    -0.022 C 
ATOM     10  C   UNL d   1       1.344   5.749   3.297  0.00  0.00     0.004 C 
ATOM     11  C   UNL d   1       2.285   5.717  -0.212  0.00  0.00     0.014 C 
ATOM     12  C   UNL d   1      -2.990   6.042   4.676  0.00  0.00     0.014 C 
ENDROOT
BRANCH   7  13
ATOM     13  C   UNL d   1       0.082   4.224   0.729  0.00  0.00     0.009 C 
BRANCH  13  14
ATOM     14  C   UNL d   1       0.955   3.725   1.882  0.00  0.00     0.033 C 
BRANCH  14  15
ATOM     15  C   UNL d   1       1.161   2.215   1.749  0.00  0.00     0.134 C 
ATOM     16  O   UNL d   1       1.920   1.932   0.541  0.00  0.00    -0.316 OA
ATOM     17  C   UNL d   1       2.298   0.647   0.375  0.00  0.00     0.261 C 
ATOM     18  C   UNL d   1       3.001  -0.042   1.524  0.00  0.00     0.142 C 
ATOM     19  O   UNL d   1       2.081   0.063  -0.660  0.00  0.00    -0.265 OA
ATOM     20  C   UNL d   1       2.185   0.193   2.801  0.00  0.00     0.130 C 
ATOM     21  C   UNL d   1       1.935   1.695   2.963  0.00  0.00     0.065 C 
BRANCH  20  22
ATOM     22  O   UNL d   1       0.936  -0.494   2.704  0.00  0.00    -0.395 OA
ATOM     23  H   UNL d   1       1.020  -1.451   2.592  0.00  0.00     0.210 HD
ENDBRANCH  20  22
ENDBRANCH  14  15
ENDBRANCH  13  14
ENDBRANCH   7  13
BRANCH   1  24
ATOM     24  O   UNL d   1      -2.587   5.650   0.480  0.00  0.00    -0.315 OA
BRANCH  24  25
ATOM     25  C   UNL d   1      -3.834   5.956   0.089  0.00  0.00     0.267 C 
ATOM     26  O   UNL d   1      -4.633   6.378   0.892  0.00  0.00    -0.264 OA
BRANCH  25  27
ATOM     27  C   UNL d   1      -4.239   5.772  -1.351  0.00  0.00     0.040 C 
ATOM     28  C   UNL d   1      -3.349   6.638  -2.245  0.00  0.00     0.025 C 
ATOM     29  C   UNL d   1      -4.079   4.302  -1.742  0.00  0.00     0.025 C 
BRANCH  27  30
ATOM     30  C   UNL d   1      -5.700   6.191  -1.527  0.00  0.00     0.014 C 
ATOM     31  C   UNL d   1      -6.111   6.004  -2.989  0.00  0.00     0.006 C 
ENDBRANCH  27  30
ENDBRANCH  25  27
ENDBRANCH  24  25
ENDBRANCH   1  24
TORSDOF 8
