REMARK  11 active torsions:
REMARK  status: ('A' for Active; 'I' for Inactive)
REMARK    1  A    between atoms: O_2  and  C_3 
REMARK    2  A    between atoms: C_21  and  O_30 
REMARK    3  A    between atoms: C_22  and  O_28 
REMARK    4  A    between atoms: C_23  and  C_24 
REMARK    5  A    between atoms: C_24  and  O_26 
REMARK    6  A    between atoms: O_30  and  C_31 
REMARK    7  A    between atoms: C_31  and  C_33 
REMARK    8  A    between atoms: C_34  and  C_35 
REMARK    9  A    between atoms: C_37  and  O_45 
REMARK   10  A    between atoms: C_38  and  O_43 
REMARK   11  A    between atoms: C_39  and  O_41 
ROOT
ATOM      1  C   UNL d   1      -6.206  -7.799 -11.167  0.00  0.00     0.070 A 
ATOM      2  C   UNL d   1      -7.278  -7.456 -10.352  0.00  0.00     0.038 A 
ATOM      3  C   UNL d   1      -7.222  -7.578  -8.986  0.00  0.00     0.017 A 
ATOM      4  C   UNL d   1      -6.031  -8.068  -8.441  0.00  0.00    -0.001 A 
ATOM      5  C   UNL d   1      -4.932  -8.421  -9.267  0.00  0.00     0.046 A 
ATOM      6  C   UNL d   1      -5.013  -8.286 -10.651  0.00  0.00     0.067 A 
ATOM      7  N   UNL d   1      -3.931  -8.861  -8.448  0.00  0.00    -0.357 N 
ATOM      8  H   UNL d   1      -3.060  -9.165  -8.746  0.00  0.00     0.166 HD
ATOM      9  C   UNL d   1      -4.344  -8.809  -7.143  0.00  0.00     0.048 A 
ATOM     10  C   UNL d   1      -5.607  -8.330  -7.083  0.00  0.00    -0.019 A 
ATOM     11  C   UNL d   1      -6.364  -8.138  -5.793  0.00  0.00     0.069 C 
ATOM     12  C   UNL d   1      -5.640  -8.923  -4.690  0.00  0.00     0.240 C 
ATOM     13  C   UNL d   1      -3.562  -9.209  -5.918  0.00  0.00     0.238 C 
ATOM     14  C   UNL d   1      -2.123  -8.698  -6.023  0.00  0.00     0.045 C 
ATOM     15  C   UNL d   1      -1.365  -9.102  -4.756  0.00  0.00     0.010 C 
ATOM     16  C   UNL d   1      -2.080  -8.523  -3.533  0.00  0.00     0.019 C 
ATOM     17  C   UNL d   1      -3.524  -9.029  -3.501  0.00  0.00     0.240 C 
ATOM     18  C   UNL d   1      -1.345  -8.961  -2.265  0.00  0.00     0.042 C 
ATOM     19  C   UNL d   1       0.092  -8.434  -2.308  0.00  0.00     0.162 C 
ATOM     20  C   UNL d   1       0.809  -8.991  -3.538  0.00  0.00     0.164 C 
ATOM     21  C   UNL d   1       0.065  -8.563  -4.806  0.00  0.00     0.121 C 
ATOM     22  N   UNL d   1      -4.198  -8.580  -4.739  0.00  0.00    -0.061 N 
ATOM     23  H   UNL d   1      -4.104  -7.561  -4.816  0.00  0.00     0.280 HD
ENDROOT
BRANCH  19  24
ATOM     24  O   UNL d   1       0.072  -7.006  -2.375  0.00  0.00    -0.310 OA
BRANCH  24  25
ATOM     25  C   UNL d   1       0.074  -6.338  -1.203  0.00  0.00     0.283 C 
ATOM     26  O   UNL d   1       0.092  -6.952  -0.153  0.00  0.00    -0.260 OA
BRANCH  25  27
ATOM     27  C   UNL d   1       0.056  -4.920  -1.195  0.00  0.00     0.083 C 
ATOM     28  C   UNL d   1       0.058  -4.251  -0.021  0.00  0.00     0.017 C 
BRANCH  28  29
ATOM     29  C   UNL d   1       0.039  -2.782  -0.013  0.00  0.00    -0.031 A 
ATOM     30  C   UNL d   1       0.019  -2.074  -1.220  0.00  0.00     0.051 A 
ATOM     31  C   UNL d   1      -0.006  -0.692  -1.209  0.00  0.00     0.105 A 
ATOM     32  C   UNL d   1       0.002  -0.004   0.002  0.00  0.00     0.135 A 
ATOM     33  C   UNL d   1       0.023  -0.705   1.205  0.00  0.00     0.105 A 
ATOM     34  C   UNL d   1       0.041  -2.087   1.202  0.00  0.00     0.051 A 
BRANCH  31  35
ATOM     35  O   UNL d   1      -0.032  -0.004  -2.381  0.00  0.00    -0.353 OA
ATOM     36  C   UNL d   1      -0.038  -0.773  -3.586  0.00  0.00     0.210 C 
ENDBRANCH  31  35
BRANCH  32  37
ATOM     37  O   UNL d   1      -0.016   1.355   0.009  0.00  0.00    -0.351 OA
ATOM     38  C   UNL d   1       1.248   2.021   0.001  0.00  0.00     0.210 C 
ENDBRANCH  32  37
BRANCH  33  39
ATOM     39  O   UNL d   1       0.025  -0.029   2.385  0.00  0.00    -0.353 OA
ATOM     40  C   UNL d   1       0.047  -0.811   3.581  0.00  0.00     0.210 C 
ENDBRANCH  33  39
ENDBRANCH  28  29
ENDBRANCH  25  27
ENDBRANCH  24  25
ENDBRANCH  19  24
BRANCH  20  41
ATOM     41  O   UNL d   1       2.146  -8.487  -3.579  0.00  0.00    -0.387 OA
ATOM     42  C   UNL d   1       3.096  -9.306  -2.894  0.00  0.00     0.202 C 
ENDBRANCH  20  41
BRANCH  21  43
ATOM     43  C   UNL d   1       0.034  -7.059  -4.889  0.00  0.00     0.265 C 
ATOM     44  O   UNL d   1      -1.025  -6.477  -4.911  0.00  0.00    -0.265 OA
BRANCH  43  45
ATOM     45  O   UNL d   1       1.182  -6.366  -4.938  0.00  0.00    -0.326 OA
ATOM     46  C   UNL d   1       1.076  -4.920  -5.016  0.00  0.00     0.213 C 
ENDBRANCH  43  45
ENDBRANCH  21  43
BRANCH   1  47
ATOM     47  O   UNL d   1      -6.329  -7.652 -12.513  0.00  0.00    -0.356 OA
ATOM     48  C   UNL d   1      -7.575  -7.147 -12.999  0.00  0.00     0.210 C 
ENDBRANCH   1  47
TORSDOF 11
