REMARK  5 active torsions:
REMARK  status: ('A' for Active; 'I' for Inactive)
REMARK    1  A    between atoms: C_6  and  O_21 
REMARK    2  A    between atoms: C_11  and  O_20 
REMARK    3  A    between atoms: C_12  and  N_28 
REMARK    4  A    between atoms: C_13  and  O_18 
REMARK    5  A    between atoms: C_14  and  N_25 
ROOT
ATOM      1  C   UNL d   1       2.085   1.496   1.200  0.00  0.00     0.040 C 
ATOM      2  C   UNL d   1       1.287   2.010   0.001  0.00  0.00     0.128 C 
ATOM      3  C   UNL d   1       2.023   1.645  -1.293  0.00  0.00     0.116 C 
ATOM      4  C   UNL d   1       1.943   0.142  -1.494  0.00  0.00     0.196 C 
ATOM      5  O   UNL d   1       2.919  -0.515  -1.767  0.00  0.00    -0.292 OA
ATOM      6  C   UNL d   1       0.579  -0.488  -1.336  0.00  0.00     0.277 C 
ATOM      7  C   UNL d   1       0.002  -0.004   0.002  0.00  0.00     0.331 C 
ATOM      8  O   UNL d   1      -0.017   1.418   0.010  0.00  0.00    -0.350 OA
ATOM      9  O   UNL d   1      -1.292  -0.575   0.175  0.00  0.00    -0.345 OA
ATOM     10  C   UNL d   1      -1.253  -2.012   0.192  0.00  0.00     0.187 C 
ATOM     11  C   UNL d   1      -0.404  -2.457   1.386  0.00  0.00     0.183 C 
ATOM     12  C   UNL d   1      -0.305  -3.983   1.408  0.00  0.00     0.247 C 
ATOM     13  C   UNL d   1       0.361  -4.465   0.116  0.00  0.00     0.184 C 
ATOM     14  C   UNL d   1      -0.493  -4.037  -1.079  0.00  0.00     0.247 C 
ATOM     15  C   UNL d   1      -0.626  -2.518  -1.106  0.00  0.00     0.190 C 
ATOM     16  O   UNL d   1       0.656  -1.912  -1.305  0.00  0.00    -0.335 OA
ENDROOT
BRANCH  12  17
ATOM     17  N   UNL d   1       0.511  -4.408   2.561  0.00  0.00    -0.070 N 
ATOM     18  C   UNL d   1      -0.326  -4.505   3.772  0.00  0.00     0.267 C 
ATOM     19  H   UNL d   1       1.257  -3.721   2.720  0.00  0.00     0.277 HD
ATOM     20  H   UNL d   1       0.927  -5.325   2.362  0.00  0.00     0.277 HD
ENDBRANCH  12  17
BRANCH  11  21
ATOM     21  O   UNL d   1       0.906  -1.898   1.272  0.00  0.00    -0.391 OA
ATOM     22  H   UNL d   1       1.501  -2.138   1.996  0.00  0.00     0.210 HD
ENDBRANCH  11  21
BRANCH  13  23
ATOM     23  O   UNL d   1       1.663  -3.887   0.006  0.00  0.00    -0.391 OA
ATOM     24  H   UNL d   1       2.257  -4.114   0.734  0.00  0.00     0.210 HD
ENDBRANCH  13  23
BRANCH  14  25
ATOM     25  N   UNL d   1       0.151  -4.487  -2.328  0.00  0.00    -0.070 N 
ATOM     26  C   UNL d   1      -0.223  -5.883  -2.623  0.00  0.00     0.267 C 
ATOM     27  H   UNL d   1       1.170  -4.424  -2.225  0.00  0.00     0.277 HD
ATOM     28  H   UNL d   1      -0.153  -3.884  -3.102  0.00  0.00     0.277 HD
ENDBRANCH  14  25
BRANCH   6  29
ATOM     29  O   UNL d   1      -0.270  -0.067  -2.405  0.00  0.00    -0.356 OA
ATOM     30  H   UNL d   1       0.036  -0.339  -3.281  0.00  0.00     0.213 HD
ENDBRANCH   6  29
TORSDOF 5
