REMARK  6 active torsions:
REMARK  status: ('A' for Active; 'I' for Inactive)
REMARK    1  A    between atoms: C_3  and  C_27 
REMARK    2  A    between atoms: C_4  and  C_16 
REMARK    3  A    between atoms: C_5  and  C_10 
REMARK    4  A    between atoms: C_10  and  O_12 
REMARK    5  A    between atoms: O_12  and  C_13 
REMARK    6  A    between atoms: C_27  and  O_29 
ROOT
ATOM      1  C   UNL d   1       5.295   2.070   2.246  0.00  0.00     0.064 C 
ATOM      2  C   UNL d   1       4.464   2.514   1.070  0.00  0.00    -0.003 C 
ATOM      3  C   UNL d   1       3.438   3.361   1.265  0.00  0.00     0.144 C 
ATOM      4  C   UNL d   1       2.577   3.825   0.124  0.00  0.00     0.081 C 
ATOM      5  C   UNL d   1       3.245   3.549  -1.193  0.00  0.00     0.049 C 
ATOM      6  C   UNL d   1       4.278   2.694  -1.289  0.00  0.00     0.018 C 
ATOM      7  N   UNL d   1       4.762   2.051  -0.182  0.00  0.00    -0.366 N 
ATOM      8  HN  UNL d   1       5.347   1.223  -0.291  1.00  0.00     0.165 HD
ATOM      9  C   UNL d   1       4.912   2.441  -2.633  0.00  0.00     0.069 C 
ENDROOT
BRANCH   4  10
ATOM     10  C   UNL d   1       1.258   3.100   0.173  0.00  0.00    -0.017 A 
ATOM     11  C   UNL d   1       0.055   3.820   0.308  0.00  0.00     0.092 A 
ATOM     12  C   UNL d   1      -1.224   3.069   0.352  0.00  0.00     0.086 A 
ATOM     13  N   UNL d   1      -0.337   5.066   0.420  0.00  0.00    -0.239 N 
ATOM     14  C   UNL d   1      -1.187   1.665   0.251  0.00  0.00     0.034 A 
ATOM     15  N   UNL d   1      -2.115   4.021   0.480  0.00  0.00    -0.240 N 
ATOM     16  C   UNL d   1       0.009   1.038   0.127  0.00  0.00     0.003 A 
ATOM     17  C   UNL d   1       1.216   1.747   0.086  0.00  0.00     0.010 A 
ATOM     18  O   UNL d   1      -1.548   5.095   0.510  0.00  0.00    -0.156 OA
ATOM     19  HN  UNL d   1      -3.124   3.883   0.544  1.00  0.00     0.197 HD
ATOM     20  HN  UNL d   1       0.277   5.880   0.429  1.00  0.00     0.197 HD
ENDBRANCH   4  10
BRANCH   3  21
ATOM     21  C   UNL d   1       3.164   3.826   2.572  0.00  0.00     0.269 C 
ATOM     22  O   UNL d   1       3.783   3.379   3.519  0.00  0.00    -0.264 OA
BRANCH  21  23
ATOM     23  O   UNL d   1       2.216   4.766   2.769  0.00  0.00    -0.326 OA
ATOM     24  C   UNL d   1       1.991   5.190   4.115  0.00  0.00     0.213 C 
ENDBRANCH  21  23
ENDBRANCH   3  21
BRANCH   5  25
ATOM     25  C   UNL d   1       2.777   4.202  -2.356  0.00  0.00     0.292 C 
ATOM     26  O   UNL d   1       3.309   3.988  -3.430  0.00  0.00    -0.259 OA
BRANCH  25  27
ATOM     27  O   UNL d   1       1.741   5.063  -2.276  0.00  0.00    -0.313 OA
BRANCH  27  28
ATOM     28  C   UNL d   1       1.321   5.687  -3.491  0.00  0.00     0.124 C 
ATOM     29  C   UNL d   1      -0.178   5.984  -3.420  0.00  0.00     0.040 C 
ATOM     30  C   UNL d   1       2.091   6.995  -3.685  0.00  0.00     0.040 C 
ENDBRANCH  27  28
ENDBRANCH  25  27
ENDBRANCH   5  25
TORSDOF 6
