REMARK  8 active torsions:
REMARK  status: ('A' for Active; 'I' for Inactive)
REMARK    1  A    between atoms: C_4  and  O_33 
REMARK    2  A    between atoms: C_10  and  C_11 
REMARK    3  A    between atoms: C_10  and  O_22 
REMARK    4  A    between atoms: C_11  and  C_13 
REMARK    5  A    between atoms: C_13  and  O_14 
REMARK    6  A    between atoms: O_14  and  C_15 
REMARK    7  A    between atoms: C_15  and  C_17 
REMARK    8  A    between atoms: C_17  and  C_18 
ROOT
ATOM      1  C   UNL d   1       2.285   3.150  -2.914  0.00  0.00     0.019 C 
ATOM      2  C   UNL d   1       2.945   2.254  -1.863  0.00  0.00     0.001 C 
ATOM      3  C   UNL d   1       2.067   1.081  -1.521  0.00  0.00     0.045 C 
ATOM      4  C   UNL d   1       1.117   1.407  -0.353  0.00  0.00     0.124 C 
ATOM      5  C   UNL d   1       0.890   2.903  -0.234  0.00  0.00     0.035 C 
ATOM      6  C   UNL d   1       2.200   3.600   0.160  0.00  0.00    -0.002 C 
ATOM      7  C   UNL d   1       3.361   3.031  -0.599  0.00  0.00     0.002 C 
ATOM      8  C   UNL d   1       4.394   4.019  -1.157  0.00  0.00     0.009 C 
ATOM      9  C   UNL d   1       5.179   3.160  -2.188  0.00  0.00     0.047 C 
ATOM     10  C   UNL d   1       4.336   1.881  -2.424  0.00  0.00     0.128 C 
ATOM     11  C   UNL d   1       2.067   5.115   0.051  0.00  0.00     0.010 C 
ATOM     12  C   UNL d   1       0.982   5.588   1.041  0.00  0.00     0.036 C 
ATOM     13  C   UNL d   1      -0.277   4.813   0.697  0.00  0.00    -0.064 C 
ATOM     14  C   UNL d   1      -1.357   5.470   0.308  0.00  0.00     0.058 C 
ATOM     15  C   UNL d   1      -2.539   4.724  -0.164  0.00  0.00     0.172 C 
ATOM     16  O   UNL d   1      -3.427   5.283  -0.780  0.00  0.00    -0.289 OA
ATOM     17  C   UNL d   1      -2.609   3.282   0.129  0.00  0.00     0.052 C 
ATOM     18  C   UNL d   1      -1.516   2.648   0.541  0.00  0.00    -0.009 C 
ATOM     19  C   UNL d   1      -0.199   3.307   0.750  0.00  0.00     0.004 C 
ATOM     20  C   UNL d   1       0.227   2.918   2.165  0.00  0.00     0.025 C 
ENDROOT
BRANCH  10  21
ATOM     21  C   UNL d   1       4.229   1.580  -3.892  0.00  0.00     0.185 C 
ATOM     22  O   UNL d   1       4.461   2.443  -4.704  0.00  0.00    -0.292 OA
BRANCH  21  23
ATOM     23  C   UNL d   1       3.833   0.200  -4.351  0.00  0.00     0.260 C 
BRANCH  23  24
ATOM     24  O   UNL d   1       3.801   0.164  -5.803  0.00  0.00    -0.314 OA
BRANCH  24  25
ATOM     25  C   UNL d   1       3.464  -1.002  -6.376  0.00  0.00     0.259 C 
ATOM     26  O   UNL d   1       3.203  -1.960  -5.687  0.00  0.00    -0.265 OA
BRANCH  25  27
ATOM     27  C   UNL d   1       3.409  -1.116  -7.877  0.00  0.00     0.119 C 
BRANCH  27  28
ATOM     28  C   UNL d   1       3.002  -2.538  -8.267  0.00  0.00    -0.043 C 
ATOM     29  C   UNL d   1       1.624  -2.853  -7.681  0.00  0.00     0.015 C 
ATOM     30  C   UNL d   1       2.947  -2.654  -9.791  0.00  0.00     0.015 C 
ATOM     31  C   UNL d   1       4.028  -3.531  -7.717  0.00  0.00     0.015 C 
ENDBRANCH  27  28
ENDBRANCH  25  27
ENDBRANCH  24  25
ENDBRANCH  23  24
ENDBRANCH  21  23
ENDBRANCH  10  21
BRANCH  10  32
ATOM     32  O   UNL d   1       4.880   0.778  -1.709  0.00  0.00    -0.381 OA
ATOM     33  H   UNL d   1       5.753   0.500  -2.019  0.00  0.00     0.211 HD
ENDBRANCH  10  32
BRANCH   4  34
ATOM     34  O   UNL d   1      -0.122   0.728  -0.588  0.00  0.00    -0.395 OA
ATOM     35  H   UNL d   1      -0.035  -0.231  -0.672  0.00  0.00     0.210 HD
ENDBRANCH   4  34
TORSDOF 8
