REMARK  10 active torsions:
REMARK  status: ('A' for Active; 'I' for Inactive)
REMARK    1  A    between atoms: C_2  and  O_3 
REMARK    2  A    between atoms: O_3  and  C_4 
REMARK    3  A    between atoms: C_7  and  C_13 
REMARK    4  A    between atoms: C_9  and  O_10 
REMARK    5  A    between atoms: O_10  and  C_11 
REMARK    6  A    between atoms: C_13  and  C_14 
REMARK    7  A    between atoms: C_17  and  O_28 
REMARK    8  A    between atoms: C_18  and  O_25 
REMARK    9  A    between atoms: O_25  and  C_26 
REMARK   10  A    between atoms: O_28  and  C_29 
ROOT
ATOM      1  C   UNL d   1       3.994   0.062   3.696  0.00  0.00     0.024 A 
ATOM      2  C   UNL d   1       4.593   0.451   2.487  0.00  0.00    -0.000 A 
ATOM      3  C   UNL d   1       4.093   0.037   1.242  0.00  0.00     0.054 A 
ATOM      4  C   UNL d   1       4.715   0.444   0.098  0.00  0.00     0.102 A 
ATOM      5  C   UNL d   1       5.848   1.271   0.148  0.00  0.00     0.102 A 
ATOM      6  C   UNL d   1       6.350   1.699   1.344  0.00  0.00     0.052 A 
ATOM      7  C   UNL d   1       5.736   1.292   2.537  0.00  0.00    -0.020 A 
ATOM      8  C   UNL d   1       6.219   1.686   3.798  0.00  0.00     0.029 A 
ATOM      9  C   UNL d   1       5.568   1.250   4.912  0.00  0.00     0.089 A 
ATOM     10  N   UNL d   1       4.499   0.469   4.837  0.00  0.00    -0.368 N 
ATOM     11  HN  UNL d   1       4.050   0.171   5.704  1.00  0.00     0.165 HD
ENDROOT
BRANCH   1  12
ATOM     12  C   UNL d   1       2.776  -0.825   3.682  0.00  0.00     0.096 C 
BRANCH  12  13
ATOM     13  C   UNL d   1       1.534   0.028   3.639  0.00  0.00    -0.050 A 
ATOM     14  C   UNL d   1       0.938   0.438   4.817  0.00  0.00     0.010 A 
ATOM     15  C   UNL d   1      -0.201   1.221   4.783  0.00  0.00     0.040 A 
ATOM     16  C   UNL d   1      -0.745   1.600   3.566  0.00  0.00     0.102 A 
ATOM     17  C   UNL d   1      -0.148   1.182   2.380  0.00  0.00     0.102 A 
ATOM     18  C   UNL d   1       0.993   0.398   2.422  0.00  0.00     0.047 A 
BRANCH  16  19
ATOM     19  O   UNL d   1      -1.862   2.374   3.531  0.00  0.00    -0.349 OA
BRANCH  19  20
ATOM     20  C   UNL d   1      -2.420   2.766   4.787  0.00  0.00     0.171 C 
ATOM     21  C   UNL d   1      -3.663   3.626   4.546  0.00  0.00     0.034 C 
ENDBRANCH  19  20
ENDBRANCH  16  19
BRANCH  17  22
ATOM     22  O   UNL d   1      -0.682   1.547   1.184  0.00  0.00    -0.349 OA
BRANCH  22  23
ATOM     23  C   UNL d   1      -0.013   1.086   0.008  0.00  0.00     0.171 C 
ATOM     24  C   UNL d   1      -0.753   1.593  -1.232  0.00  0.00     0.034 C 
ENDBRANCH  22  23
ENDBRANCH  17  22
ENDBRANCH  12  13
ENDBRANCH   1  12
BRANCH   4  25
ATOM     25  O   UNL d   1       4.231   0.043  -1.107  0.00  0.00    -0.349 OA
BRANCH  25  26
ATOM     26  C   UNL d   1       3.075  -0.798  -1.095  0.00  0.00     0.171 C 
ATOM     27  C   UNL d   1       2.680  -1.143  -2.532  0.00  0.00     0.034 C 
ENDBRANCH  25  26
ENDBRANCH   4  25
BRANCH   5  28
ATOM     28  O   UNL d   1       6.445   1.661  -1.008  0.00  0.00    -0.349 OA
BRANCH  28  29
ATOM     29  C   UNL d   1       7.594   2.503  -0.894  0.00  0.00     0.171 C 
ATOM     30  C   UNL d   1       8.125   2.834  -2.290  0.00  0.00     0.034 C 
ENDBRANCH  28  29
ENDBRANCH   5  28
TORSDOF 10
