REMARK  14 active torsions:
REMARK  status: ('A' for Active; 'I' for Inactive)
REMARK    1  A    between atoms: C_2  and  C_3 
REMARK    2  A    between atoms: C_3  and  C_5 
REMARK    3  A    between atoms: C_5  and  O_7 
REMARK    4  A    between atoms: O_7  and  C_8 
REMARK    5  A    between atoms: C_10  and  O_29 
REMARK    6  A    between atoms: C_14  and  C_19 
REMARK    7  A    between atoms: C_19  and  C_20 
REMARK    8  A    between atoms: C_20  and  C_21 
REMARK    9  A    between atoms: C_21  and  C_22 
REMARK   10  A    between atoms: C_21  and  O_28 
REMARK   11  A    between atoms: C_22  and  C_23 
REMARK   12  A    between atoms: C_23  and  C_24 
REMARK   13  A    between atoms: C_23  and  O_27 
REMARK   14  A    between atoms: C_24  and  C_25 
ROOT
ATOM      1  C   UNL d   1      -0.772   0.700   0.706  0.00  0.00     0.143 C 
ATOM      2  C   UNL d   1       0.430   1.447   1.281  0.00  0.00     0.069 C 
ATOM      3  C   UNL d   1       1.067   0.572   2.369  0.00  0.00     0.144 C 
ATOM      4  C   UNL d   1       1.529  -0.707   1.718  0.00  0.00     0.012 C 
ATOM      5  C   UNL d   1       0.878  -1.221   0.691  0.00  0.00    -0.053 C 
ATOM      6  C   UNL d   1      -0.379  -0.636   0.121  0.00  0.00     0.053 C 
ATOM      7  C   UNL d   1      -0.228  -0.571  -1.401  0.00  0.00     0.004 C 
ATOM      8  C   UNL d   1      -0.062  -1.993  -1.938  0.00  0.00     0.009 C 
ATOM      9  C   UNL d   1       0.994  -2.748  -1.190  0.00  0.00    -0.022 C 
ATOM     10  C   UNL d   1       1.431  -2.416   0.012  0.00  0.00     0.004 C 
ATOM     11  C   UNL d   1      -1.394  -2.734  -1.805  0.00  0.00     0.014 C 
ENDROOT
BRANCH   7  12
ATOM     12  C   UNL d   1      -1.476   0.067  -2.014  0.00  0.00     0.009 C 
BRANCH  12  13
ATOM     13  C   UNL d   1      -1.565  -0.307  -3.495  0.00  0.00     0.032 C 
BRANCH  13  14
ATOM     14  C   UNL d   1      -2.813   0.331  -4.108  0.00  0.00     0.120 C 
BRANCH  14  15
ATOM     15  C   UNL d   1      -2.837   0.061  -5.614  0.00  0.00     0.064 C 
BRANCH  15  16
ATOM     16  C   UNL d   1      -4.016   0.803  -6.246  0.00  0.00     0.130 C 
BRANCH  16  17
ATOM     17  C   UNL d   1      -3.968   0.635  -7.766  0.00  0.00     0.144 C 
BRANCH  17  18
ATOM     18  C   UNL d   1      -5.056   1.465  -8.398  0.00  0.00     0.175 C 
ATOM     19  O   UNL d   1      -5.794   2.123  -7.704  0.00  0.00    -0.648 OA
ATOM     20  O   UNL d   1      -5.204   1.474  -9.732  0.00  0.00    -0.648 OA
ENDBRANCH  17  18
ENDBRANCH  16  17
BRANCH  16  21
ATOM     21  O   UNL d   1      -5.241   0.264  -5.746  0.00  0.00    -0.395 OA
ATOM     22  H   UNL d   1      -5.362  -0.677  -5.934  0.00  0.00     0.210 HD
ENDBRANCH  16  21
ENDBRANCH  15  16
ENDBRANCH  14  15
BRANCH  14  23
ATOM     23  O   UNL d   1      -3.981  -0.231  -3.505  0.00  0.00    -0.395 OA
ATOM     24  H   UNL d   1      -4.062  -1.187  -3.622  0.00  0.00     0.210 HD
ENDBRANCH  14  23
ENDBRANCH  13  14
ENDBRANCH  12  13
ENDBRANCH   7  12
BRANCH   1  25
ATOM     25  O   UNL d   1      -1.380   1.511  -0.334  0.00  0.00    -0.315 OA
BRANCH  25  26
ATOM     26  C   UNL d   1      -2.308   2.401   0.051  0.00  0.00     0.263 C 
ATOM     27  O   UNL d   1      -2.603   2.499   1.219  0.00  0.00    -0.265 OA
BRANCH  26  28
ATOM     28  C   UNL d   1      -2.982   3.278  -0.972  0.00  0.00     0.081 C 
ATOM     29  C   UNL d   1      -1.929   4.128  -1.688  0.00  0.00     0.020 C 
BRANCH  28  30
ATOM     30  C   UNL d   1      -3.989   4.194  -0.275  0.00  0.00     0.010 C 
ATOM     31  C   UNL d   1      -4.761   4.995  -1.325  0.00  0.00     0.006 C 
ENDBRANCH  28  30
ENDBRANCH  26  28
ENDBRANCH  25  26
ENDBRANCH   1  25
BRANCH   3  32
ATOM     32  O   UNL d   1       2.183   1.252   2.946  0.00  0.00    -0.392 OA
ATOM     33  H   UNL d   1       2.647   0.742   3.624  0.00  0.00     0.210 HD
ENDBRANCH   3  32
TORSDOF 14
