REMARK  2 active torsions:
REMARK  status: ('A' for Active; 'I' for Inactive)
REMARK    1  A    between atoms: N_7  and  C_15 
REMARK    2  A    between atoms: C_15  and  C_16 
ROOT
ATOM      1  C   UNL d   1       3.722   4.439   3.442  0.00  0.00     0.002 A 
ATOM      2  C   UNL d   1       4.672   5.226   2.819  0.00  0.00     0.002 A 
ATOM      3  C   UNL d   1       5.262   4.800   1.641  0.00  0.00     0.021 A 
ATOM      4  C   UNL d   1       4.897   3.586   1.092  0.00  0.00     0.032 A 
ATOM      5  C   UNL d   1       3.937   2.786   1.718  0.00  0.00     0.052 A 
ATOM      6  C   UNL d   1       3.353   3.222   2.896  0.00  0.00     0.031 A 
ATOM      7  N   UNL d   1       3.570   1.556   1.161  0.00  0.00    -0.344 N 
ATOM      8  C   UNL d   1       4.503   0.717   0.542  0.00  0.00     0.052 A 
ATOM      9  C   UNL d   1       4.413  -0.656   0.682  0.00  0.00     0.031 A 
ATOM     10  C   UNL d   1       5.339  -1.478   0.063  0.00  0.00     0.002 A 
ATOM     11  C   UNL d   1       6.356  -0.936  -0.700  0.00  0.00     0.002 A 
ATOM     12  C   UNL d   1       6.454   0.437  -0.851  0.00  0.00     0.021 A 
ATOM     13  C   UNL d   1       5.532   1.262  -0.236  0.00  0.00     0.032 A 
ATOM     14  S   UNL d   1       5.630   3.016  -0.410  0.00  0.00    -0.086 SA
ENDROOT
BRANCH   7  15
ATOM     15  C   UNL d   1       2.170   1.131   1.233  0.00  0.00     0.136 C 
BRANCH  15  16
ATOM     16  C   UNL d   1       1.420   1.633  -0.003  0.00  0.00     0.034 C 
ATOM     17  C   UNL d   1      -0.013   1.086   0.008  0.00  0.00    -0.004 C 
ATOM     18  C   UNL d   1      -0.722   1.597   1.268  0.00  0.00     0.032 C 
ATOM     19  C   UNL d   1      -0.746   1.610  -1.233  0.00  0.00     0.032 C 
ATOM     20  C   UNL d   1      -0.718   3.128   1.252  0.00  0.00     0.235 C 
ATOM     21  N   UNL d   1      -0.038   3.629   0.039  0.00  0.00    -0.071 N 
ATOM     22  C   UNL d   1       1.365   3.163   0.016  0.00  0.00     0.241 C 
ATOM     23  C   UNL d   1      -0.747   3.157  -1.169  0.00  0.00     0.235 C 
ATOM     24  H   UNL d   1      -0.048   4.656   0.051  0.00  0.00     0.279 HD
ENDBRANCH  15  16
ENDBRANCH   7  15
TORSDOF 2
