REMARK  1 active torsions:
REMARK  status: ('A' for Active; 'I' for Inactive)
REMARK    1  A    between atoms: C_18  and  O_20 
ROOT
ATOM      1  C   UNL d   1      -4.017   7.051  -0.534  0.00  0.00     0.024 C 
ATOM      2  C   UNL d   1      -4.114   6.642   0.932  0.00  0.00     0.021 C 
ATOM      3  C   UNL d   1      -2.808   6.848   1.659  0.00  0.00     0.018 C 
ATOM      4  C   UNL d   1      -1.838   5.687   1.405  0.00  0.00     0.007 C 
ATOM      5  C   UNL d   1      -2.287   4.764   0.291  0.00  0.00     0.003 C 
ATOM      6  C   UNL d   1      -3.679   4.178   0.549  0.00  0.00    -0.001 C 
ATOM      7  C   UNL d   1      -4.608   5.193   1.132  0.00  0.00     0.006 C 
ATOM      8  C   UNL d   1      -6.028   5.271   0.551  0.00  0.00     0.013 C 
ATOM      9  C   UNL d   1      -6.520   6.659   1.047  0.00  0.00     0.079 C 
ATOM     10  C   UNL d   1      -5.285   7.414   1.523  0.00  0.00     0.135 C 
ATOM     11  O   UNL d   1      -5.227   8.397   2.208  0.00  0.00    -0.297 OA
ATOM     12  C   UNL d   1      -4.168   3.590  -0.780  0.00  0.00     0.033 C 
ATOM     13  C   UNL d   1      -3.162   2.555  -1.213  0.00  0.00    -0.023 C 
ATOM     14  C   UNL d   1      -1.921   2.563  -0.836  0.00  0.00    -0.072 C 
ATOM     15  C   UNL d   1      -1.311   3.615   0.059  0.00  0.00    -0.017 C 
ATOM     16  C   UNL d   1      -0.861   2.951   1.352  0.00  0.00     0.016 C 
ATOM     17  C   UNL d   1      -0.935   1.430   1.217  0.00  0.00     0.033 C 
ATOM     18  C   UNL d   1      -0.261   0.927  -0.054  0.00  0.00     0.122 C 
ATOM     19  C   UNL d   1      -0.991   1.453  -1.296  0.00  0.00     0.066 C 
ATOM     20  C   UNL d   1      -0.082   4.194  -0.650  0.00  0.00     0.020 C 
ENDROOT
BRANCH  18  21
ATOM     21  O   UNL d   1       1.105   1.344  -0.079  0.00  0.00    -0.395 OA
ATOM     22  H   UNL d   1       1.594   1.043  -0.857  0.00  0.00     0.210 HD
ENDBRANCH  18  21
TORSDOF 1
