REMARK  3 active torsions:
REMARK  status: ('A' for Active; 'I' for Inactive)
REMARK    1  A    between atoms: C_2  and  C_3 
REMARK    2  A    between atoms: C_2  and  N_12 
REMARK    3  A    between atoms: C_3  and  C_4 
ROOT
ATOM      1  C   UNL d   1      -2.514   0.980   0.019  0.00  0.00     0.070 C 
ENDROOT
BRANCH   1   2
ATOM      2  C   UNL d   1      -2.945   0.711   1.462  0.00  0.00     0.183 C 
ATOM      3  C   UNL d   1      -4.319   0.038   1.467  0.00  0.00     0.040 C 
BRANCH   2   4
ATOM      4  N   UNL d   1      -1.945  -0.158   2.108  0.00  0.00    -0.075 N 
ATOM      5  H   UNL d   1      -2.228  -0.365   3.065  0.00  0.00     0.274 HD
ATOM      6  H   UNL d   1      -1.849  -1.028   1.587  0.00  0.00     0.274 HD
ATOM      7  H   UNL d   1      -1.039   0.325   2.125  0.00  0.00     0.274 HD
ENDBRANCH   2   4
ENDBRANCH   1   2
BRANCH   1   8
ATOM      8  C   UNL d   1      -1.219   1.751   0.017  0.00  0.00    -0.056 A 
ATOM      9  C   UNL d   1      -1.238   3.133   0.030  0.00  0.00     0.007 A 
ATOM     10  C   UNL d   1      -0.050   3.840   0.022  0.00  0.00     0.001 A 
ATOM     11  C   UNL d   1       1.156   3.165   0.008  0.00  0.00     0.000 A 
ATOM     12  C   UNL d   1       1.175   1.783   0.000  0.00  0.00     0.001 A 
ATOM     13  C   UNL d   1      -0.013   1.076   0.008  0.00  0.00     0.007 A 
ENDBRANCH   1   8
TORSDOF 3
