REMARK  3 active torsions:
REMARK  status: ('A' for Active; 'I' for Inactive)
REMARK    1  A    between atoms: C_7  and  N_8 
REMARK    2  A    between atoms: C_9  and  C_21 
REMARK    3  A    between atoms: C_15  and  N_20 
ROOT
ATOM      1  N   UNL d   1       2.357   3.889   0.001  0.00  0.00    -0.264 N 
ATOM      2  C   UNL d   1       2.944   4.234   1.180  0.00  0.00     0.120 A 
ATOM      3  N   UNL d   1       4.059   4.894   1.255  0.00  0.00    -0.343 N 
ATOM      4  HN  UNL d   1       4.447   5.111   2.173  1.00  0.00     0.167 HD
ATOM      5  C   UNL d   1       4.721   5.302   0.143  0.00  0.00     0.049 A 
ATOM      6  C   UNL d   1       5.918   6.017   0.226  0.00  0.00     0.033 A 
ATOM      7  C   UNL d   1       6.556   6.412  -0.915  0.00  0.00     0.031 A 
ATOM      8  C   UNL d   1       6.029   6.110  -2.171  0.00  0.00     0.026 A 
ATOM      9  C   UNL d   1       4.844   5.402  -2.282  0.00  0.00     0.048 A 
ATOM     10  C   UNL d   1       4.183   4.994  -1.126  0.00  0.00     0.061 A 
ATOM     11  C   UNL d   1       2.922   4.240  -1.178  0.00  0.00     0.266 A 
ATOM     12  O   UNL d   1       2.406   3.943  -2.240  0.00  0.00    -0.267 OA
ENDROOT
BRANCH   1  13
ATOM     13  C   UNL d   1       1.155   3.170   0.008  0.00  0.00     0.050 A 
ATOM     14  C   UNL d   1      -0.059   3.845   0.023  0.00  0.00    -0.035 A 
ATOM     15  C   UNL d   1      -0.085   5.351   0.032  0.00  0.00     0.050 C 
ATOM     16  C   UNL d   1      -1.243   3.133   0.031  0.00  0.00     0.009 A 
ATOM     17  C   UNL d   1      -1.220   1.750   0.017  0.00  0.00     0.001 A 
ATOM     18  C   UNL d   1      -0.013   1.076   0.008  0.00  0.00     0.002 A 
ATOM     19  C   UNL d   1       1.174   1.782   0.000  0.00  0.00     0.031 A 
ENDBRANCH   1  13
BRANCH   2  20
ATOM     20  C   UNL d   1       2.268   3.824   2.463  0.00  0.00     0.299 C 
ATOM     21  F   UNL d   1       3.024   4.270   3.552  0.00  0.00    -0.247 F 
ENDBRANCH   2  20
BRANCH   8  22
ATOM     22  N   UNL d   1       6.701   6.526  -3.324  0.00  0.00    -0.399 N 
ATOM     23  H   UNL d   1       6.337   6.318  -4.199  0.00  0.00     0.156 HD
ATOM     24  H   UNL d   1       7.531   7.022  -3.250  0.00  0.00     0.156 HD
ENDBRANCH   8  22
TORSDOF 3
