REMARK  5 active torsions:
REMARK  status: ('A' for Active; 'I' for Inactive)
REMARK    1  A    between atoms: CZ_3  and  OH_11 
REMARK    2  A    between atoms: CG_6  and  CB_7 
REMARK    3  A    between atoms: CB_7  and  CA_8 
REMARK    4  A    between atoms: CA_8  and  C_9 
REMARK    5  A    between atoms: CA_8  and  N_16 
ROOT
ATOM      1  CB  TYR d   1      -1.429  -0.534   0.112  0.00  0.00     0.082 C 
ENDROOT
BRANCH   1   2
ATOM      2  CG  TYR d   1      -2.005  -0.151   1.451  0.00  0.00    -0.056 A 
ATOM      3  CD1 TYR d   1      -1.859  -0.998   2.534  0.00  0.00     0.010 A 
ATOM      4  CE1 TYR d   1      -2.381  -0.646   3.763  0.00  0.00     0.037 A 
ATOM      5  CZ  TYR d   1      -3.062   0.553   3.909  0.00  0.00     0.065 A 
ATOM      6  CE2 TYR d   1      -3.212   1.400   2.820  0.00  0.00     0.037 A 
ATOM      7  CD2 TYR d   1      -2.683   1.046   1.593  0.00  0.00     0.010 A 
BRANCH   5   8
ATOM      8  OH  TYR d   1      -3.581   0.900   5.116  0.00  0.00    -0.361 OA
ATOM      9  HH  TYR d   1      -4.489   0.596   5.256  0.00  0.00     0.217 HD
ENDBRANCH   5   8
ENDBRANCH   1   2
BRANCH   1  10
ATOM     10  CA  TYR d   1       0.002  -0.004   0.002  0.00  0.00     0.287 C 
BRANCH  10  11
ATOM     11  C   TYR d   1       0.621  -0.491  -1.283  0.00  0.00     0.204 C 
ATOM     12  O   TYR d   1       0.674   0.241  -2.243  0.00  0.00    -0.646 OA
ATOM     13  OXT TYR d   1       1.112  -1.738  -1.361  0.00  0.00    -0.646 OA
ENDBRANCH  10  11
BRANCH  10  14
ATOM     14  N   TYR d   1      -0.029   1.469   0.032  0.00  0.00    -0.065 N 
ATOM     15  H1  TYR d   1       0.919   1.839   0.003  0.00  0.00     0.275 HD
ATOM     16  H2  TYR d   1      -0.556   1.823  -0.764  0.00  0.00     0.275 HD
ATOM     17  H3  TYR d   1      -0.484   1.779   0.899  0.00  0.00     0.275 HD
ENDBRANCH  10  14
ENDBRANCH   1  10
TORSDOF 5
