REMARK  4 active torsions:
REMARK  status: ('A' for Active; 'I' for Inactive)
REMARK    1  A    between atoms: C_7  and  O_46 
REMARK    2  A    between atoms: C_24  and  O_28 
REMARK    3  A    between atoms: C_25  and  O_26 
REMARK    4  A    between atoms: C_38  and  O_42 
ROOT
ATOM      1  C   UNL d   1      -3.504  12.278   0.989  0.00  0.00     0.272 C 
ATOM      2  N   UNL d   1      -4.589  11.341   0.668  0.00  0.00    -0.066 N 
ATOM      3  C   UNL d   1      -5.673  11.514   1.634  0.00  0.00     0.242 C 
ATOM      4  C   UNL d   1      -6.902  10.768   1.110  0.00  0.00     0.067 C 
ATOM      5  C   UNL d   1      -6.507   9.334   0.836  0.00  0.00    -0.045 A 
ATOM      6  C   UNL d   1      -7.506   8.376   0.794  0.00  0.00     0.047 A 
ATOM      7  C   UNL d   1      -7.195   7.054   0.533  0.00  0.00     0.102 A 
ATOM      8  C   UNL d   1      -5.867   6.680   0.309  0.00  0.00     0.110 A 
ATOM      9  C   UNL d   1      -4.873   7.643   0.392  0.00  0.00     0.050 A 
ATOM     10  C   UNL d   1      -5.189   8.976   0.640  0.00  0.00    -0.018 A 
ATOM     11  C   UNL d   1      -4.065   9.969   0.698  0.00  0.00     0.227 C 
ATOM     12  C   UNL d   1      -3.156   9.805  -0.511  0.00  0.00     0.077 C 
ATOM     13  C   UNL d   1      -2.269   8.602  -0.419  0.00  0.00    -0.056 A 
ATOM     14  C   UNL d   1      -2.136   7.866   0.737  0.00  0.00     0.010 A 
ATOM     15  C   UNL d   1      -1.328   6.740   0.755  0.00  0.00     0.038 A 
ATOM     16  C   UNL d   1      -0.664   6.348  -0.391  0.00  0.00     0.076 A 
ATOM     17  C   UNL d   1      -0.762   7.127  -1.547  0.00  0.00     0.038 A 
ATOM     18  C   UNL d   1      -1.562   8.238  -1.560  0.00  0.00     0.010 A 
ATOM     19  O   UNL d   1       0.070   5.227  -0.476  0.00  0.00    -0.307 OA
ATOM     20  C   UNL d   1       0.980   4.734   0.364  0.00  0.00     0.121 A 
ATOM     21  C   UNL d   1       0.700   3.545   1.042  0.00  0.00     0.016 A 
ATOM     22  C   UNL d   1       1.676   2.913   1.784  0.00  0.00    -0.043 A 
ATOM     23  C   UNL d   1       2.905   3.529   1.959  0.00  0.00     0.047 A 
ATOM     24  C   UNL d   1       3.168   4.749   1.359  0.00  0.00     0.104 A 
ATOM     25  C   UNL d   1       2.209   5.356   0.555  0.00  0.00     0.136 A 
ATOM     26  C   UNL d   1       1.428   1.579   2.430  0.00  0.00     0.067 C 
ATOM     27  C   UNL d   1      -0.066   1.283   2.513  0.00  0.00     0.242 C 
ATOM     28  N   UNL d   1      -0.700   1.560   1.217  0.00  0.00    -0.066 N 
ATOM     29  C   UNL d   1      -0.709   3.008   0.986  0.00  0.00     0.230 C 
ATOM     30  C   UNL d   1      -1.532   3.693   2.071  0.00  0.00     0.077 C 
ATOM     31  C   UNL d   1      -3.002   3.598   1.763  0.00  0.00    -0.053 A 
ATOM     32  C   UNL d   1      -3.721   2.501   2.201  0.00  0.00     0.010 A 
ATOM     33  C   UNL d   1      -5.067   2.401   1.930  0.00  0.00     0.040 A 
ATOM     34  C   UNL d   1      -5.700   3.392   1.195  0.00  0.00     0.102 A 
ATOM     35  C   UNL d   1      -4.971   4.486   0.723  0.00  0.00     0.110 A 
ATOM     36  C   UNL d   1      -3.629   4.597   1.040  0.00  0.00     0.047 A 
ATOM     37  O   UNL d   1      -5.582   5.412  -0.042  0.00  0.00    -0.305 OA
ATOM     38  C   UNL d   1       0.058   0.896   0.147  0.00  0.00     0.272 C 
ATOM     39  C   UNL d   1      -2.080   1.056   1.226  0.00  0.00     0.272 C 
ATOM     40  C   UNL d   1      -5.093  11.635  -0.680  0.00  0.00     0.272 C 
ENDROOT
BRANCH   7  41
ATOM     41  O   UNL d   1      -8.182   6.118   0.495  0.00  0.00    -0.353 OA
ATOM     42  C   UNL d   1      -9.516   6.572   0.733  0.00  0.00     0.210 C 
ENDBRANCH   7  41
BRANCH  34  43
ATOM     43  O   UNL d   1      -7.032   3.299   0.934  0.00  0.00    -0.353 OA
ATOM     44  C   UNL d   1      -7.715   2.153   1.448  0.00  0.00     0.210 C 
ENDBRANCH  34  43
BRANCH  25  45
ATOM     45  O   UNL d   1       2.471   6.551  -0.040  0.00  0.00    -0.351 OA
ATOM     46  C   UNL d   1       2.130   7.730   0.692  0.00  0.00     0.210 C 
ENDBRANCH  25  45
BRANCH  24  47
ATOM     47  O   UNL d   1       4.369   5.357   1.558  0.00  0.00    -0.353 OA
ATOM     48  C   UNL d   1       5.308   4.680   2.394  0.00  0.00     0.210 C 
ENDBRANCH  24  47
TORSDOF 4
