REMARK  10 active torsions:
REMARK  status: ('A' for Active; 'I' for Inactive)
REMARK    1  A    between atoms: N_9  and  C_22 
REMARK    2  A    between atoms: C_22  and  C_23 
REMARK    3  A    between atoms: C_23  and  C_24 
REMARK    4  A    between atoms: C_23  and  O_32 
REMARK    5  A    between atoms: C_24  and  C_25 
REMARK    6  A    between atoms: C_24  and  O_31 
REMARK    7  A    between atoms: C_25  and  C_26 
REMARK    8  A    between atoms: C_25  and  O_30 
REMARK    9  A    between atoms: C_26  and  O_27 
REMARK   10  A    between atoms: O_27  and  P_28 
ROOT
ATOM      1  C   UNL d   1       0.890   4.843  -5.014  0.00  0.00     0.049 C 
ATOM      2  C   UNL d   1       0.628   3.522  -4.340  0.00  0.00    -0.054 A 
ATOM      3  C   UNL d   1      -0.329   2.690  -4.837  0.00  0.00     0.039 A 
ATOM      4  C   UNL d   1      -0.580   1.453  -4.212  0.00  0.00     0.060 A 
ATOM      5  C   UNL d   1       0.171   1.092  -3.070  0.00  0.00     0.063 A 
ATOM      6  C   UNL d   1       1.143   1.962  -2.583  0.00  0.00     0.039 A 
ATOM      7  C   UNL d   1       1.366   3.164  -3.216  0.00  0.00    -0.054 A 
ATOM      8  C   UNL d   1       2.419   4.103  -2.686  0.00  0.00     0.049 C 
ATOM      9  N   UNL d   1      -0.055  -0.114  -2.441  0.00  0.00    -0.327 N 
ATOM     10  C   UNL d   1      -1.010  -0.943  -2.948  0.00  0.00     0.145 A 
ATOM     11  N   UNL d   1      -1.293  -2.112  -2.399  0.00  0.00    -0.292 N 
ATOM     12  HN  UNL d   1      -0.779  -2.412  -1.571  1.00  0.00     0.172 HD
ATOM     13  C   UNL d   1      -2.233  -2.908  -2.903  0.00  0.00     0.328 A 
ATOM     14  O   UNL d   1      -2.437  -3.974  -2.349  0.00  0.00    -0.247 OA
ATOM     15  N   UNL d   1      -2.970  -2.610  -3.983  0.00  0.00    -0.273 N 
ATOM     16  H   UNL d   1      -3.658  -3.261  -4.302  0.00  0.00     0.173 HD
ATOM     17  C   UNL d   1      -2.800  -1.445  -4.650  0.00  0.00     0.280 A 
ATOM     18  O   UNL d   1      -3.466  -1.172  -5.630  0.00  0.00    -0.265 OA
ATOM     19  C   UNL d   1      -1.768  -0.517  -4.136  0.00  0.00     0.146 A 
ATOM     20  N   UNL d   1      -1.521   0.636  -4.703  0.00  0.00    -0.347 N 
ATOM     21  HN  UNL d   1      -2.051   0.916  -5.529  1.00  0.00     0.166 HD
ENDROOT
BRANCH   9  22
ATOM     22  C   UNL d   1       0.718  -0.497  -1.257  0.00  0.00     0.165 C 
BRANCH  22  23
ATOM     23  C   UNL d   1       0.002  -0.004   0.002  0.00  0.00     0.167 C 
BRANCH  23  24
ATOM     24  C   UNL d   1       0.742  -0.511   1.242  0.00  0.00     0.179 C 
BRANCH  24  25
ATOM     25  C   UNL d   1       0.026  -0.018   2.500  0.00  0.00     0.173 C 
BRANCH  25  26
ATOM     26  C   UNL d   1       0.766  -0.524   3.740  0.00  0.00     0.217 C 
BRANCH  26  27
ATOM     27  O   UNL d   1       0.034  -0.163   4.913  0.00  0.00    -0.280 OA
BRANCH  27  28
ATOM     28  P   UNL d   1       0.522  -0.536   6.401  0.00  0.00     0.422 P 
ATOM     29  O   UNL d   1       0.740  -1.997   6.497  0.00  0.00    -0.617 OA
ATOM     30  O   UNL d   1       1.899   0.234   6.723  0.00  0.00    -0.617 OA
ATOM     31  O   UNL d   1      -0.603  -0.090   7.462  0.00  0.00    -0.617 OA
ENDBRANCH  27  28
ENDBRANCH  26  27
ENDBRANCH  25  26
BRANCH  25  32
ATOM     32  O   UNL d   1       0.007   1.411   2.508  0.00  0.00    -0.391 OA
ATOM     33  H   UNL d   1       0.884   1.817   2.502  0.00  0.00     0.210 HD
ENDBRANCH  25  32
ENDBRANCH  24  25
BRANCH  24  34
ATOM     34  O   UNL d   1       0.761  -1.940   1.234  0.00  0.00    -0.390 OA
ATOM     35  H   UNL d   1      -0.117  -2.345   1.240  0.00  0.00     0.210 HD
ENDBRANCH  24  34
ENDBRANCH  23  24
BRANCH  23  36
ATOM     36  O   UNL d   1      -0.017   1.425   0.010  0.00  0.00    -0.391 OA
ATOM     37  H   UNL d   1       0.861   1.830   0.004  0.00  0.00     0.210 HD
ENDBRANCH  23  36
ENDBRANCH  22  23
ENDBRANCH   9  22
TORSDOF 10
