REMARK  5 active torsions:
REMARK  status: ('A' for Active; 'I' for Inactive)
REMARK    1  A    between atoms: C_4  and  O_10 
REMARK    2  A    between atoms: O_10  and  C_11 
REMARK    3  A    between atoms: C_11  and  C_13 
REMARK    4  A    between atoms: C_13  and  C_14 
REMARK    5  A    between atoms: C_13  and  O_20 
ROOT
ATOM      1  C   UNL d   1      -4.364   3.600  -0.322  0.00  0.00     0.292 C 
ATOM      2  O   UNL d   1      -5.338   2.928  -0.079  0.00  0.00    -0.262 OA
ENDROOT
BRANCH   1   3
ATOM      3  O   UNL d   1      -3.196   3.008  -0.616  0.00  0.00    -0.314 OA
BRANCH   3   4
ATOM      4  C   UNL d   1      -3.176   1.556  -0.624  0.00  0.00     0.133 C 
ATOM      5  C   UNL d   1      -2.818   1.044   0.772  0.00  0.00     0.037 C 
ATOM      6  C   UNL d   1      -1.438   1.570   1.171  0.00  0.00    -0.015 C 
ATOM      7  C   UNL d   1      -1.080   1.057   2.567  0.00  0.00     0.010 C 
ATOM      8  C   UNL d   1      -0.395   1.080   0.165  0.00  0.00     0.013 C 
ATOM      9  C   UNL d   1      -0.753   1.593  -1.232  0.00  0.00    -0.045 C 
ATOM     10  C   UNL d   1      -2.133   1.066  -1.630  0.00  0.00     0.041 C 
ATOM     11  C   UNL d   1      -0.773   3.123  -1.223  0.00  0.00     0.015 C 
ATOM     12  C   UNL d   1       0.290   1.102  -2.238  0.00  0.00     0.015 C 
ENDBRANCH   3   4
ENDBRANCH   1   3
BRANCH   1  13
ATOM     13  C   UNL d   1      -4.461   5.104  -0.294  0.00  0.00     0.250 C 
BRANCH  13  14
ATOM     14  C   UNL d   1      -3.599   5.643   0.818  0.00  0.00    -0.020 A 
ATOM     15  C   UNL d   1      -2.347   6.156   0.536  0.00  0.00     0.010 A 
ATOM     16  C   UNL d   1      -1.556   6.650   1.556  0.00  0.00     0.001 A 
ATOM     17  C   UNL d   1      -2.018   6.631   2.859  0.00  0.00     0.000 A 
ATOM     18  C   UNL d   1      -3.270   6.119   3.141  0.00  0.00     0.001 A 
ATOM     19  C   UNL d   1      -4.062   5.629   2.120  0.00  0.00     0.010 A 
ENDBRANCH  13  14
BRANCH  13  20
ATOM     20  O   UNL d   1      -5.819   5.490  -0.074  0.00  0.00    -0.381 OA
ATOM     21  H   UNL d   1      -6.190   5.165   0.757  0.00  0.00     0.211 HD
ENDBRANCH  13  20
ENDBRANCH   1  13
TORSDOF 5
