REMARK  3 active torsions:
REMARK  status: ('A' for Active; 'I' for Inactive)
REMARK    1  A    between atoms: C_2  and  C_14 
REMARK    2  A    between atoms: C_3  and  C_12 
REMARK    3  A    between atoms: C_14  and  N_15 
ROOT
ATOM      1  C   UNL d   1       1.283  -2.835  -1.509  0.00  0.00     0.036 C 
ATOM      2  C   UNL d   1       1.032  -1.452  -2.115  0.00  0.00     0.106 C 
ATOM      3  C   UNL d   1       1.967  -0.379  -1.493  0.00  0.00     0.193 C 
ATOM      4  N   UNL d   1       1.468   0.093  -0.198  0.00  0.00    -0.218 NA
ATOM      5  C   UNL d   1       0.002  -0.004   0.002  0.00  0.00     0.198 C 
ATOM      6  S   UNL d   1      -0.590  -0.755  -1.567  0.00  0.00     0.174 S 
ATOM      7  O   UNL d   1      -1.486  -1.818  -1.273  0.00  0.00    -0.225 OA
ATOM      8  O   UNL d   1      -0.987   0.275  -2.463  0.00  0.00    -0.225 OA
ATOM      9  C   UNL d   1      -0.019   1.526   0.010  0.00  0.00     0.132 C 
ATOM     10  C   UNL d   1       1.494   1.448  -0.004  0.00  0.00     0.204 C 
ATOM     11  O   UNL d   1       2.381   2.267   0.110  0.00  0.00    -0.280 OA
ENDROOT
BRANCH   2  12
ATOM     12  C   UNL d   1       1.146  -1.482  -3.640  0.00  0.00     0.177 C 
BRANCH  12  13
ATOM     13  N   UNL d   1       0.173  -2.433  -4.184  0.00  0.00    -0.286 N 
ATOM     14  N   UNL d   1       0.065  -3.672  -3.854  0.00  0.00    -0.241 N 
ATOM     15  N   UNL d   1      -0.888  -4.226  -4.517  0.00  0.00    -0.296 N 
ATOM     16  HN  UNL d   1       0.651  -4.147  -3.167  1.00  0.00     0.208 HD
ATOM     17  C   UNL d   1      -1.440  -3.314  -5.325  0.00  0.00     0.127 A 
ATOM     18  HN  UNL d   1      -1.176  -5.202  -4.439  1.00  0.00     0.187 HD
ATOM     19  C   UNL d   1      -0.769  -2.158  -5.115  0.00  0.00     0.130 A 
ENDBRANCH  12  13
ENDBRANCH   2  12
BRANCH   3  20
ATOM     20  C   UNL d   1       3.340  -0.972  -1.304  0.00  0.00     0.193 C 
ATOM     21  O   UNL d   1       3.682  -1.367  -0.215  0.00  0.00    -0.647 OA
ATOM     22  O   UNL d   1       4.181  -1.061  -2.346  0.00  0.00    -0.647 OA
ENDBRANCH   3  20
TORSDOF 3
