REMARK  7 active torsions:
REMARK  status: ('A' for Active; 'I' for Inactive)
REMARK    1  A    between atoms: C_3  and  C_4 
REMARK    2  A    between atoms: CA_5  and  C_24 
REMARK    3  A    between atoms: CA_8  and  N_11 
REMARK       I    between atoms: N_11  and  C_12 
REMARK    4  A    between atoms: C_12  and  CA_14 
REMARK    5  A    between atoms: CA_14  and  C_15 
REMARK    6  A    between atoms: CA_14  and  N_30 
REMARK    7  A    between atoms: C_18  and  O_21 
ROOT
ATOM      1  N   UNL d   1      -4.396   1.604   2.768  0.00  0.00    -0.343 N 
ATOM      2  C   UNL d   1      -5.035   2.316   3.718  0.00  0.00     0.253 C 
ATOM      3  O   UNL d   1      -4.801   3.499   3.849  0.00  0.00    -0.271 OA
ATOM      4  H   UNL d   1      -4.583   0.658   2.663  0.00  0.00     0.163 HD
ENDROOT
BRANCH   1   5
ATOM      5  CA  UNL d   1      -3.420   2.259   1.894  0.00  0.00     0.210 C 
ATOM      6  C   UNL d   1      -2.467   1.304   1.209  0.00  0.00     0.187 C 
ATOM      7  N   UNL d   1      -2.849   1.982  -0.057  0.00  0.00    -0.293 N 
ATOM      8  S   UNL d   1      -0.695   1.649   1.461  0.00  0.00    -0.136 SA
ATOM      9  CA  UNL d   1      -2.132   1.990  -1.262  0.00  0.00     0.122 C 
ATOM     10  C   UNL d   1      -3.922   2.522   0.501  0.00  0.00     0.251 C 
ATOM     11  C   UNL d   1      -0.830   1.650  -1.284  0.00  0.00    -0.015 C 
ATOM     12  C   UNL d   1       0.008   1.165  -0.146  0.00  0.00     0.117 C 
ATOM     13  O   UNL d   1      -4.929   3.034   0.057  0.00  0.00    -0.271 OA
BRANCH   9  14
ATOM     14  C   UNL d   1      -2.806   2.370  -2.508  0.00  0.00     0.227 C 
ATOM     15  O   UNL d   1      -3.950   2.784  -2.479  0.00  0.00    -0.643 OA
ATOM     16  OXT UNL d   1      -2.159   2.262  -3.686  0.00  0.00    -0.643 OA
ENDBRANCH   9  14
BRANCH  11  17
ATOM     17  C   UNL d   1      -0.155   1.770  -2.576  0.00  0.00     0.006 C 
ATOM     18  C   UNL d   1       0.468   0.714  -3.104  0.00  0.00    -0.030 C 
ATOM     19  C   UNL d   1       1.164   0.837  -4.435  0.00  0.00     0.036 C 
ENDBRANCH  11  17
ENDBRANCH   1   5
BRANCH   2  20
ATOM     20  CA  UNL d   1      -6.040   1.643   4.616  0.00  0.00     0.307 C 
BRANCH  20  21
ATOM     21  C   UNL d   1      -5.317   0.901   5.711  0.00  0.00    -0.019 A 
ATOM     22  C   UNL d   1      -5.128  -0.465   5.612  0.00  0.00     0.012 A 
ATOM     23  C   UNL d   1      -4.466  -1.146   6.614  0.00  0.00     0.037 A 
ATOM     24  C   UNL d   1      -3.989  -0.459   7.721  0.00  0.00     0.065 A 
ATOM     25  C   UNL d   1      -4.180   0.912   7.819  0.00  0.00     0.037 A 
ATOM     26  C   UNL d   1      -4.838   1.590   6.811  0.00  0.00     0.012 A 
BRANCH  24  27
ATOM     27  O   UNL d   1      -3.336  -1.127   8.708  0.00  0.00    -0.361 OA
ATOM     28  H   UNL d   1      -2.380  -1.184   8.579  0.00  0.00     0.217 HD
ENDBRANCH  24  27
ENDBRANCH  20  21
BRANCH  20  29
ATOM     29  N   UNL d   1      -6.931   2.666   5.189  0.00  0.00    -0.062 N 
ATOM     30  H1  UNL d   1      -7.645   2.224   5.767  0.00  0.00     0.275 HD
ATOM     31  H2  UNL d   1      -6.394   3.320   5.756  0.00  0.00     0.275 HD
ATOM     32  H3  UNL d   1      -7.388   3.181   4.428  0.00  0.00     0.275 HD
ENDBRANCH  20  29
ENDBRANCH   2  20
TORSDOF 7
