REMARK  6 active torsions:
REMARK  status: ('A' for Active; 'I' for Inactive)
REMARK    1  A    between atoms: C6_4  and  N6_22 
REMARK    2  A    between atoms: N9_9  and  C1*_13 
REMARK    3  A    between atoms: C2*_14  and  O2*_21 
REMARK    4  A    between atoms: C3*_15  and  O3*_20 
REMARK    5  A    between atoms: C4*_16  and  C5*_18 
REMARK    6  A    between atoms: C5*_18  and  O5*_19 
ROOT
ATOM      1  C2   A1 d   1       0.652   8.952   3.326  0.00  0.00     0.183 A 
ATOM      2  N1   A1 d   1       0.644   8.941   4.647  0.00  0.00    -0.341 N 
ATOM      3  H1   A1 d   1       0.573   9.823   5.155  1.00  0.00     0.167 HD
ATOM      4  C6   A1 d   1       0.728   7.802   5.326  0.00  0.00     0.109 A 
ATOM      5  C5   A1 d   1       0.825   6.599   4.607  0.00  0.00     0.116 A 
ATOM      6  C4   A1 d   1       0.828   6.664   3.203  0.00  0.00     0.142 A 
ATOM      7  N3   A1 d   1       0.741   7.851   2.611  0.00  0.00    -0.336 N 
ATOM      8  H3   A1 d   1       0.742   7.909   1.593  1.00  0.00     0.168 HD
ATOM      9  N9   A1 d   1       0.930   5.368   2.765  0.00  0.00    -0.297 N 
ATOM     10  C8   A1 d   1       0.991   4.567   3.866  0.00  0.00     0.188 A 
ATOM     11  N7   A1 d   1       0.923   5.291   4.946  0.00  0.00    -0.346 N 
ATOM     12  H7   A1 d   1       0.942   4.930   5.900  1.00  0.00     0.167 HD
ENDROOT
BRANCH   9  13
ATOM     13  C1*  A1 d   1       0.973   4.926   1.369  0.00  0.00     0.262 C 
ATOM     14  O4*  A1 d   1       0.604   3.532   1.270  0.00  0.00    -0.353 OA
ATOM     15  C4*  A1 d   1       1.145   3.085   0.008  0.00  0.00     0.179 C 
ATOM     16  C3*  A1 d   1       2.534   3.755  -0.089  0.00  0.00     0.182 C 
ATOM     17  C2*  A1 d   1       2.418   4.994   0.827  0.00  0.00     0.198 C 
BRANCH  15  18
ATOM     18  C5*  A1 d   1       1.286   1.562  -0.002  0.00  0.00     0.198 C 
BRANCH  18  19
ATOM     19  O5*  A1 d   1      -0.011   0.963   0.007  0.00  0.00    -0.398 OA
ATOM     20  H5*  A1 d   1       0.002  -0.004   0.002  0.00  0.00     0.209 HD
ENDBRANCH  18  19
ENDBRANCH  15  18
BRANCH  16  21
ATOM     21  O3*  A1 d   1       2.807   4.148  -1.435  0.00  0.00    -0.390 OA
ATOM     22  H3*  A1 d   1       2.832   3.413  -2.063  0.00  0.00     0.210 HD
ENDBRANCH  16  21
BRANCH  17  23
ATOM     23  O2*  A1 d   1       3.361   4.915   1.897  0.00  0.00    -0.388 OA
ATOM     24  H2*  A1 d   1       4.283   4.894   1.608  0.00  0.00     0.210 HD
ENDBRANCH  17  23
ENDBRANCH   9  13
BRANCH   4  25
ATOM     25  N6   A1 d   1       0.720   7.801   6.710  0.00  0.00    -0.287 NA
ATOM     26  H61  A1 d   1       1.496   8.333   7.049  0.00  0.00     0.125 HD
ATOM     27  H62  A1 d   1       0.781   6.963   7.195  0.00  0.00     0.125 HD
ENDBRANCH   4  25
TORSDOF 6
