REMARK  12 active torsions:
REMARK  status: ('A' for Active; 'I' for Inactive)
REMARK    1  A    between atoms: C_3  and  O_29 
REMARK    2  A    between atoms: C_11  and  N_14 
REMARK    3  A    between atoms: C_12  and  O_13 
REMARK       I    between atoms: N_14  and  C_15 
REMARK    4  A    between atoms: C_15  and  C_17 
REMARK    5  A    between atoms: C_20  and  O_28 
REMARK    6  A    between atoms: C_21  and  C_23 
REMARK    7  A    between atoms: C_23  and  C_24 
REMARK    8  A    between atoms: O_29  and  C_30 
REMARK    9  A    between atoms: C_31  and  O_44 
REMARK   10  A    between atoms: C_32  and  O_40 
REMARK   11  A    between atoms: C_33  and  O_38 
REMARK   12  A    between atoms: O_40  and  C_41 
REMARK       I    between atoms: C_41  and  N_43 
ROOT
ATOM      1  C   UNL d   1      -6.264   2.081   0.505  0.00  0.00     0.054 C 
ATOM      2  C   UNL d   1      -6.134   1.517  -0.886  0.00  0.00     0.006 A 
ATOM      3  C   UNL d   1      -5.172   0.558  -1.161  0.00  0.00     0.081 A 
ATOM      4  C   UNL d   1      -5.048   0.027  -2.442  0.00  0.00     0.038 A 
ATOM      5  C   UNL d   1      -5.870   0.449  -3.447  0.00  0.00     0.020 A 
ATOM      6  C   UNL d   1      -6.842   1.419  -3.189  0.00  0.00     0.034 A 
ATOM      7  C   UNL d   1      -6.973   1.960  -1.898  0.00  0.00     0.101 A 
ATOM      8  O   UNL d   1      -7.912   2.898  -1.650  0.00  0.00    -0.272 OA
ATOM      9  C   UNL d   1      -8.741   3.342  -2.608  0.00  0.00     0.318 A 
ATOM     10  O   UNL d   1      -9.570   4.191  -2.329  0.00  0.00    -0.257 OA
ATOM     11  C   UNL d   1      -8.677   2.853  -3.927  0.00  0.00     0.146 A 
ATOM     12  C   UNL d   1      -7.739   1.892  -4.252  0.00  0.00     0.111 A 
ENDROOT
BRANCH   3  13
ATOM     13  O   UNL d   1      -4.348   0.129  -0.171  0.00  0.00    -0.317 OA
BRANCH  13  14
ATOM     14  C   UNL d   1      -3.382  -0.866  -0.516  0.00  0.00     0.298 C 
ATOM     15  O   UNL d   1      -4.051  -2.074  -0.882  0.00  0.00    -0.345 OA
ATOM     16  C   UNL d   1      -3.174  -3.132  -1.273  0.00  0.00     0.085 C 
ATOM     17  C   UNL d   1      -2.254  -3.489  -0.102  0.00  0.00     0.187 C 
ATOM     18  C   UNL d   1      -2.329  -2.680  -2.465  0.00  0.00     0.048 C 
ATOM     19  C   UNL d   1      -3.998  -4.359  -1.667  0.00  0.00     0.048 C 
ATOM     20  C   UNL d   1      -1.476  -2.242   0.326  0.00  0.00     0.199 C 
ATOM     21  C   UNL d   1      -2.471  -1.132   0.685  0.00  0.00     0.206 C 
BRANCH  17  22
ATOM     22  O   UNL d   1      -1.338  -4.508  -0.508  0.00  0.00    -0.385 OA
ATOM     23  C   UNL d   1      -0.923  -5.372   0.552  0.00  0.00     0.202 C 
ENDBRANCH  17  22
BRANCH  20  24
ATOM     24  O   UNL d   1      -0.628  -1.799  -0.766  0.00  0.00    -0.293 OA
BRANCH  24  25
ATOM     25  C   UNL d   1       0.519  -1.175  -0.436  0.00  0.00     0.358 C 
ATOM     26  O   UNL d   1       0.803  -1.004   0.733  0.00  0.00    -0.239 OA
ATOM     27  N   UNL d   1       1.351  -0.739  -1.403  0.00  0.00    -0.346 N 
ATOM     28  H   UNL d   1       1.124  -0.876  -2.336  0.00  0.00     0.161 HD
ATOM     29  H   UNL d   1       2.177  -0.290  -1.165  0.00  0.00     0.161 HD
ENDBRANCH  24  25
ENDBRANCH  20  24
BRANCH  21  30
ATOM     30  O   UNL d   1      -1.756   0.061   1.016  0.00  0.00    -0.388 OA
ATOM     31  H   UNL d   1      -2.325   0.808   1.249  0.00  0.00     0.210 HD
ENDBRANCH  21  30
ENDBRANCH  13  14
ENDBRANCH   3  13
BRANCH  12  32
ATOM     32  O   UNL d   1      -7.650   1.400  -5.511  0.00  0.00    -0.357 OA
ATOM     33  H   UNL d   1      -8.203   0.623  -5.670  0.00  0.00     0.217 HD
ENDBRANCH  12  32
BRANCH  11  34
ATOM     34  N   UNL d   1      -9.560   3.340  -4.906  0.00  0.00    -0.316 N 
ATOM     35  C   UNL d   1     -10.781   2.788  -5.046  0.00  0.00     0.256 C 
ATOM     36  O   UNL d   1     -11.155   1.932  -4.267  0.00  0.00    -0.267 OA
ATOM     37  H   UNL d   1      -9.290   4.073  -5.481  0.00  0.00     0.169 HD
BRANCH  35  38
ATOM     38  C   UNL d   1     -11.666   3.222  -6.145  0.00  0.00     0.033 A 
ATOM     39  C   UNL d   1     -12.932   2.651  -6.292  0.00  0.00     0.027 A 
ATOM     40  C   UNL d   1     -13.755   3.059  -7.319  0.00  0.00    -0.021 A 
ATOM     41  C   UNL d   1     -13.326   4.037  -8.208  0.00  0.00     0.072 A 
ATOM     42  C   UNL d   1     -12.067   4.608  -8.065  0.00  0.00     0.038 A 
ATOM     43  C   UNL d   1     -11.241   4.210  -7.038  0.00  0.00     0.020 A 
BRANCH  40  44
ATOM     44  C   UNL d   1     -15.121   2.443  -7.479  0.00  0.00     0.068 C 
BRANCH  44  45
ATOM     45  C   UNL d   1     -16.160   3.370  -6.901  0.00  0.00    -0.020 C 
ATOM     46  C   UNL d   1     -17.169   3.763  -7.639  0.00  0.00    -0.091 C 
ATOM     47  C   UNL d   1     -17.290   3.290  -9.064  0.00  0.00     0.042 C 
ATOM     48  C   UNL d   1     -18.208   4.690  -7.062  0.00  0.00     0.042 C 
ENDBRANCH  44  45
ENDBRANCH  40  44
BRANCH  41  49
ATOM     49  O   UNL d   1     -14.140   4.437  -9.218  0.00  0.00    -0.360 OA
ATOM     50  H   UNL d   1     -14.717   5.178  -8.988  0.00  0.00     0.217 HD
ENDBRANCH  41  49
ENDBRANCH  35  38
ENDBRANCH  11  34
TORSDOF 12
