REMARK  10 active torsions:
REMARK  status: ('A' for Active; 'I' for Inactive)
REMARK    1  A    between atoms: C_2  and  C_3 
REMARK    2  A    between atoms: C_2  and  N_28 
REMARK    3  A    between atoms: C_3  and  C_4 
REMARK    4  A    between atoms: C_4  and  C_5 
REMARK    5  A    between atoms: C_11  and  C_12 
REMARK    6  A    between atoms: C_11  and  N_28 
REMARK    7  A    between atoms: C_12  and  C_13 
REMARK    8  A    between atoms: C_12  and  O_23 
REMARK    9  A    between atoms: C_16  and  O_22 
REMARK   10  A    between atoms: C_17  and  C_19 
REMARK       I    between atoms: C_19  and  N_21 
ROOT
ATOM      1  C   UNL d   1       6.335  -4.936   0.214  0.00  0.00     0.176 C 
ENDROOT
BRANCH   1   2
ATOM      2  C   UNL d   1       6.562  -3.545  -0.380  0.00  0.00     0.269 C 
BRANCH   2   3
ATOM      3  N   UNL d   1       5.288  -3.038  -0.924  0.00  0.00    -0.069 N 
ATOM      4  H   UNL d   1       4.953  -3.678  -1.654  0.00  0.00     0.277 HD
ATOM      5  H   UNL d   1       4.594  -2.986  -0.169  0.00  0.00     0.277 HD
BRANCH   3   6
ATOM      6  C   UNL d   1       5.477  -1.695  -1.504  0.00  0.00     0.182 C 
ATOM      7  C   UNL d   1       5.969  -1.827  -2.947  0.00  0.00     0.040 C 
BRANCH   6   8
ATOM      8  C   UNL d   1       4.142  -0.948  -1.487  0.00  0.00     0.037 C 
BRANCH   8   9
ATOM      9  C   UNL d   1       3.711  -0.707  -0.039  0.00  0.00     0.040 C 
BRANCH   9  10
ATOM     10  C   UNL d   1       2.396   0.029  -0.022  0.00  0.00    -0.058 A 
ATOM     11  C   UNL d   1       2.377   1.411  -0.014  0.00  0.00     0.007 A 
ATOM     12  C   UNL d   1       1.171   2.086   0.002  0.00  0.00     0.001 A 
ATOM     13  C   UNL d   1      -0.017   1.378   0.010  0.00  0.00     0.000 A 
ATOM     14  C   UNL d   1       0.002  -0.004   0.002  0.00  0.00     0.001 A 
ATOM     15  C   UNL d   1       1.208  -0.679  -0.014  0.00  0.00     0.007 A 
ENDBRANCH   9  10
ENDBRANCH   8   9
ENDBRANCH   6   8
ENDBRANCH   3   6
ENDBRANCH   2   3
ENDBRANCH   1   2
BRANCH   1  16
ATOM     16  C   UNL d   1       7.633  -5.462   0.773  0.00  0.00    -0.027 A 
ATOM     17  C   UNL d   1       8.430  -6.279   0.002  0.00  0.00     0.029 A 
ATOM     18  C   UNL d   1       9.634  -6.766   0.519  0.00  0.00     0.065 A 
ATOM     19  C   UNL d   1      10.020  -6.418   1.820  0.00  0.00     0.081 A 
ATOM     20  C   UNL d   1       9.205  -5.594   2.582  0.00  0.00     0.038 A 
ATOM     21  C   UNL d   1       8.021  -5.115   2.057  0.00  0.00     0.012 A 
BRANCH  18  22
ATOM     22  C   UNL d   1      10.492  -7.642  -0.301  0.00  0.00     0.252 C 
ATOM     23  O   UNL d   1      11.539  -8.064   0.152  0.00  0.00    -0.268 OA
ATOM     24  N   UNL d   1      10.117  -7.974  -1.552  0.00  0.00    -0.366 N 
ATOM     25  H   UNL d   1       9.282  -7.638  -1.913  0.00  0.00     0.159 HD
ATOM     26  H   UNL d   1      10.682  -8.550  -2.091  0.00  0.00     0.159 HD
ENDBRANCH  18  22
BRANCH  19  27
ATOM     27  O   UNL d   1      11.186  -6.884   2.332  0.00  0.00    -0.360 OA
ATOM     28  H   UNL d   1      11.947  -6.311   2.166  0.00  0.00     0.217 HD
ENDBRANCH  19  27
ENDBRANCH   1  16
BRANCH   1  29
ATOM     29  O   UNL d   1       5.365  -4.856   1.260  0.00  0.00    -0.389 OA
ATOM     30  H   UNL d   1       5.618  -4.273   1.988  0.00  0.00     0.210 HD
ENDBRANCH   1  29
TORSDOF 10
