REMARK  2 active torsions:
REMARK  status: ('A' for Active; 'I' for Inactive)
REMARK    1  A    between atoms: C_1  and  C_2 
REMARK    2  A    between atoms: C_1  and  O_6 
ROOT
ATOM      1  C   UNL d   1       1.145   3.085   0.008  0.00  0.00     0.153 C 
ATOM      2 BR   UNL d   1       0.177   3.643   1.625  0.00  0.00    -0.058 Br
ATOM      3 BR   UNL d   1       2.930   3.909  -0.005  0.00  0.00    -0.058 Br
ATOM      4 BR   UNL d   1       0.146   3.661  -1.585  0.00  0.00    -0.058 Br
ENDROOT
BRANCH   1   5
ATOM      5  C   UNL d   1       1.286   1.562  -0.002  0.00  0.00     0.209 C 
BRANCH   5   6
ATOM      6  O   UNL d   1      -0.011   0.963   0.007  0.00  0.00    -0.398 OA
ATOM      7  H   UNL d   1       0.002  -0.004   0.002  0.00  0.00     0.209 HD
ENDBRANCH   5   6
ENDBRANCH   1   5
TORSDOF 2
