REMARK  15 active torsions:
REMARK  status: ('A' for Active; 'I' for Inactive)
REMARK    1  A    between atoms: N_2  and  C_3 
REMARK       I    between atoms: N_2  and  C_8 
REMARK    2  A    between atoms: C_3  and  C_4 
REMARK    3  A    between atoms: C_4  and  C_5 
REMARK    4  A    between atoms: C_4  and  O_7 
REMARK    5  A    between atoms: C_5  and  O_6 
REMARK    6  A    between atoms: C_8  and  C_10 
REMARK    7  A    between atoms: C_12  and  C_24 
REMARK    8  A    between atoms: C_14  and  N_17 
REMARK       I    between atoms: N_17  and  C_18 
REMARK    9  A    between atoms: C_18  and  C_20 
REMARK   10  A    between atoms: C_20  and  O_21 
REMARK       I    between atoms: C_24  and  N_26 
REMARK   11  A    between atoms: N_26  and  C_27 
REMARK   12  A    between atoms: C_27  and  C_28 
REMARK   13  A    between atoms: C_28  and  C_29 
REMARK   14  A    between atoms: C_28  and  O_31 
REMARK   15  A    between atoms: C_29  and  O_30 
ROOT
ATOM      1  C   UNL d   1      -2.292  -4.207  -0.002  0.00  0.00     0.068 A 
ATOM      2  C   UNL d   1      -1.109  -4.868  -0.330  0.00  0.00     0.040 A 
ATOM      3  C   UNL d   1       0.058  -4.136  -0.545  0.00  0.00     0.068 A 
ATOM      4  C   UNL d   1       0.037  -2.744  -0.436  0.00  0.00     0.051 A 
ATOM      5  C   UNL d   1      -1.140  -2.090  -0.104  0.00  0.00     0.070 A 
ATOM      6  C   UNL d   1      -2.304  -2.814   0.111  0.00  0.00     0.051 A 
ATOM      7  I   UNL d   1      -4.080  -1.819   0.604  0.00  0.00    -0.041 I 
ATOM      8  I   UNL d   1       1.788  -1.642  -0.768  0.00  0.00    -0.041 I 
ATOM      9  I   UNL d   1      -1.086  -6.956  -0.498  0.00  0.00    -0.042 I 
ENDROOT
BRANCH   1  10
ATOM     10  C   UNL d   1      -3.532  -4.978   0.227  0.00  0.00     0.256 C 
ATOM     11  N   UNL d   1      -3.833  -5.418   1.464  0.00  0.00    -0.350 N 
ATOM     12  C   UNL d   1      -2.931  -5.133   2.583  0.00  0.00     0.153 C 
ATOM     13  O   UNL d   1      -4.280  -5.215  -0.702  0.00  0.00    -0.267 OA
BRANCH  11  14
ATOM     14  C   UNL d   1      -5.062  -6.183   1.691  0.00  0.00     0.159 C 
BRANCH  14  15
ATOM     15  C   UNL d   1      -4.776  -7.675   1.507  0.00  0.00     0.159 C 
BRANCH  15  16
ATOM     16  C   UNL d   1      -6.083  -8.462   1.620  0.00  0.00     0.197 C 
BRANCH  16  17
ATOM     17  O   UNL d   1      -5.835  -9.840   1.333  0.00  0.00    -0.398 OA
ATOM     18  H   UNL d   1      -6.621 -10.400   1.386  0.00  0.00     0.209 HD
ENDBRANCH  16  17
ENDBRANCH  15  16
BRANCH  15  19
ATOM     19  O   UNL d   1      -3.866  -8.113   2.518  0.00  0.00    -0.392 OA
ATOM     20  H   UNL d   1      -4.194  -7.995   3.420  0.00  0.00     0.210 HD
ENDBRANCH  15  19
ENDBRANCH  14  15
ENDBRANCH  11  14
ENDBRANCH   1  10
BRANCH   5  21
ATOM     21  N   UNL d   1      -1.156  -0.694   0.009  0.00  0.00    -0.323 N 
ATOM     22  C   UNL d   1      -0.910  -0.112   1.200  0.00  0.00     0.245 C 
ATOM     23  O   UNL d   1      -0.767  -0.795   2.191  0.00  0.00    -0.271 OA
ATOM     24  H   UNL d   1      -1.343  -0.146  -0.769  0.00  0.00     0.169 HD
BRANCH  22  25
ATOM     25  C   UNL d   1      -0.814   1.389   1.299  0.00  0.00     0.270 C 
BRANCH  25  26
ATOM     26  O   UNL d   1      -0.550   1.761   2.653  0.00  0.00    -0.387 OA
ATOM     27  C   UNL d   1      -0.439   3.171   2.858  0.00  0.00     0.202 C 
ENDBRANCH  25  26
ENDBRANCH  22  25
ENDBRANCH   5  21
BRANCH   3  28
ATOM     28  C   UNL d   1       1.314  -4.833  -0.893  0.00  0.00     0.254 C 
ATOM     29  O   UNL d   1       1.592  -5.038  -2.058  0.00  0.00    -0.268 OA
ATOM     30  N   UNL d   1       2.151  -5.240   0.081  0.00  0.00    -0.354 N 
ATOM     31  H   UNL d   1       1.930  -5.075   1.011  0.00  0.00     0.162 HD
BRANCH  30  32
ATOM     32  C   UNL d   1       3.397  -5.930  -0.264  0.00  0.00     0.156 C 
BRANCH  32  33
ATOM     33  C   UNL d   1       4.157  -6.281   1.016  0.00  0.00     0.159 C 
BRANCH  33  34
ATOM     34  C   UNL d   1       5.513  -6.889   0.653  0.00  0.00     0.197 C 
BRANCH  34  35
ATOM     35  O   UNL d   1       6.271  -7.109   1.845  0.00  0.00    -0.398 OA
ATOM     36  H   UNL d   1       7.145  -7.494   1.690  0.00  0.00     0.209 HD
ENDBRANCH  34  35
ENDBRANCH  33  34
BRANCH  33  37
ATOM     37  O   UNL d   1       3.400  -7.225   1.777  0.00  0.00    -0.392 OA
ATOM     38  H   UNL d   1       3.226  -8.054   1.312  0.00  0.00     0.210 HD
ENDBRANCH  33  37
ENDBRANCH  32  33
ENDBRANCH  30  32
ENDBRANCH   3  28
TORSDOF 15
