REMARK  4 active torsions:
REMARK  status: ('A' for Active; 'I' for Inactive)
REMARK    1  A    between atoms: C_5  and  S_8 
REMARK    2  A    between atoms: S_8  and  N_11 
REMARK    3  A    between atoms: C_16  and  C_18 
REMARK    4  A    between atoms: C_18  and  C_19 
ROOT
ATOM      1  C   UNL d   1       0.535  -2.065  -1.100  0.00  0.00     0.056 A 
ATOM      2  C   UNL d   1       0.054  -2.782  -0.006  0.00  0.00     0.054 A 
ATOM      3  C   UNL d   1      -0.465  -2.089   1.079  0.00  0.00     0.107 A 
ATOM      4  C   UNL d   1      -0.484  -0.710   1.087  0.00  0.00     0.054 A 
ATOM      5  C   UNL d   1       0.002  -0.004   0.002  0.00  0.00     0.102 A 
ATOM      6  C   UNL d   1       0.502  -0.685  -1.095  0.00  0.00     0.059 A 
ATOM      7 CL   UNL d   1       1.096   0.200  -2.465  0.00  0.00    -0.083 Cl
ATOM      8  S   UNL d   1      -1.120  -2.987   2.454  0.00  0.00     0.262 S 
ATOM      9  O   UNL d   1      -0.431  -2.535   3.611  0.00  0.00    -0.200 OA
ATOM     10  O   UNL d   1      -2.536  -2.949   2.337  0.00  0.00    -0.200 OA
ATOM     11  N   UNL d   1      -0.650  -4.566   2.193  0.00  0.00    -0.293 N 
ATOM     12  C   UNL d   1      -0.714  -5.036   0.794  0.00  0.00     0.192 C 
ATOM     13  N   UNL d   1       0.129  -4.173  -0.029  0.00  0.00    -0.367 N 
ATOM     14  H   UNL d   1      -0.353  -5.140   2.916  0.00  0.00     0.174 HD
ATOM     15  H   UNL d   1       0.774  -4.589  -0.622  0.00  0.00     0.161 HD
ENDROOT
BRANCH   5  16
ATOM     16  S   UNL d   1      -0.022   1.758   0.012  0.00  0.00     0.258 S 
ATOM     17  O   UNL d   1      -0.590   2.163  -1.226  0.00  0.00    -0.201 OA
ATOM     18  O   UNL d   1      -0.566   2.150   1.264  0.00  0.00    -0.201 OA
BRANCH  16  19
ATOM     19  N   UNL d   1       1.553   2.269  -0.001  0.00  0.00    -0.324 N 
ATOM     20  H   UNL d   1       1.786   3.113  -0.418  0.00  0.00     0.169 HD
ATOM     21  H   UNL d   1       2.243   1.724   0.410  0.00  0.00     0.169 HD
ENDBRANCH  16  19
ENDBRANCH   5  16
BRANCH  12  22
ATOM     22  C   UNL d   1      -2.159  -4.968   0.296  0.00  0.00     0.052 C 
BRANCH  22  23
ATOM     23  C   UNL d   1      -2.240  -5.553  -1.116  0.00  0.00    -0.011 C 
ATOM     24  C   UNL d   1      -3.704  -5.591  -1.588  0.00  0.00     0.005 C 
ATOM     25  C   UNL d   1      -3.782  -4.707  -2.850  0.00  0.00     0.000 C 
ATOM     26  C   UNL d   1      -2.334  -4.698  -3.398  0.00  0.00     0.000 C 
ATOM     27  C   UNL d   1      -1.479  -4.649  -2.107  0.00  0.00     0.005 C 
ENDBRANCH  22  23
ENDBRANCH  12  22
TORSDOF 4
