REMARK  4 active torsions:
REMARK  status: ('A' for Active; 'I' for Inactive)
REMARK    1  A    between atoms: C_2  and  C_3 
REMARK    2  A    between atoms: C_3  and  N_25 
REMARK    3  A    between atoms: C_11  and  O_22 
REMARK    4  A    between atoms: C_15  and  O_21 
ROOT
ATOM      1  C   UNL d   1      -3.411   3.558  -0.836  0.00  0.00     0.237 C 
ATOM      2  C   UNL d   1      -4.260   4.252  -1.912  0.00  0.00     0.045 C 
ATOM      3  C   UNL d   1      -3.769   3.743  -3.271  0.00  0.00     0.030 C 
ATOM      4  C   UNL d   1      -3.869   2.238  -3.280  0.00  0.00    -0.003 A 
ATOM      5  C   UNL d   1      -2.898   1.340  -2.908  0.00  0.00    -0.046 A 
ATOM      6  C   UNL d   1      -3.254   0.006  -2.986  0.00  0.00     0.011 A 
ATOM      7  C   UNL d   1      -4.504  -0.354  -3.465  0.00  0.00     0.040 A 
ATOM      8  C   UNL d   1      -5.451   0.567  -3.906  0.00  0.00     0.099 A 
ATOM      9  C   UNL d   1      -5.107   1.920  -3.826  0.00  0.00     0.110 A 
ATOM     10  O   UNL d   1      -5.747   3.050  -4.204  0.00  0.00    -0.338 OA
ATOM     11  C   UNL d   1      -4.717   4.085  -4.415  0.00  0.00     0.175 C 
ATOM     12  C   UNL d   1      -4.104   3.696  -5.765  0.00  0.00     0.171 C 
ATOM     13  C   UNL d   1      -2.622   3.776  -5.824  0.00  0.00     0.003 C 
ATOM     14  C   UNL d   1      -1.815   3.913  -4.817  0.00  0.00    -0.020 C 
ATOM     15  C   UNL d   1      -2.314   4.111  -3.433  0.00  0.00     0.055 C 
ATOM     16  C   UNL d   1      -1.511   3.372  -2.372  0.00  0.00     0.201 C 
ATOM     17  C   UNL d   1      -1.567   1.856  -2.465  0.00  0.00     0.073 C 
ATOM     18  N   UNL d   1      -1.972   3.856  -1.040  0.00  0.00    -0.063 N 
ATOM     19  H   UNL d   1      -1.837   4.872  -0.996  0.00  0.00     0.280 HD
ENDROOT
BRANCH  18  20
ATOM     20  C   UNL d   1      -1.176   3.222   0.025  0.00  0.00     0.262 C 
BRANCH  20  21
ATOM     21  C   UNL d   1       0.286   3.417  -0.280  0.00  0.00    -0.010 C 
ATOM     22  C   UNL d   1       1.061   4.025   0.585  0.00  0.00     0.008 C 
ENDBRANCH  20  21
ENDBRANCH  18  20
BRANCH  12  23
ATOM     23  O   UNL d   1      -4.496   2.356  -6.070  0.00  0.00    -0.389 OA
ATOM     24  H   UNL d   1      -4.151   2.027  -6.911  0.00  0.00     0.210 HD
ENDBRANCH  12  23
BRANCH   8  25
ATOM     25  O   UNL d   1      -6.657   0.169  -4.393  0.00  0.00    -0.358 OA
ATOM     26  H   UNL d   1      -7.347   0.093  -3.719  0.00  0.00     0.217 HD
ENDBRANCH   8  25
TORSDOF 4
