REMARK  3 active torsions:
REMARK  status: ('A' for Active; 'I' for Inactive)
REMARK    1  A    between atoms: C_2  and  O_3 
REMARK    2  A    between atoms: C_2  and  P_4 
REMARK    3  A    between atoms: C_2  and  P_6 
ROOT
ATOM      1  C   UNL d   1       0.400   3.890  -1.163  0.00  0.00     0.077 C 
ATOM      2  C   UNL d   1       1.282   3.453   0.008  0.00  0.00     0.281 C 
ENDROOT
BRANCH   2   3
ATOM      3  O   UNL d   1       0.683   3.868   1.237  0.00  0.00    -0.365 OA
ATOM      4  H   UNL d   1       1.189   3.623   2.024  0.00  0.00     0.212 HD
ENDBRANCH   2   3
BRANCH   2   5
ATOM      5  P   UNL d   1       1.451   1.638  -0.003  0.00  0.00     0.309 P 
ATOM      6  O   UNL d   1       2.179   1.217  -1.221  0.00  0.00    -0.637 OA
ATOM      7  O   UNL d   1      -0.011   0.963   0.007  0.00  0.00    -0.637 OA
ATOM      8  O   UNL d   1       2.268   1.166   1.301  0.00  0.00    -0.637 OA
ENDBRANCH   2   5
BRANCH   2   9
ATOM      9  P   UNL d   1       2.929   4.217  -0.153  0.00  0.00     0.309 P 
ATOM     10  O   UNL d   1       3.550   3.787  -1.426  0.00  0.00    -0.637 OA
ATOM     11  O   UNL d   1       2.780   5.820  -0.143  0.00  0.00    -0.637 OA
ATOM     12  O   UNL d   1       3.858   3.757   1.079  0.00  0.00    -0.637 OA
ENDBRANCH   2   9
TORSDOF 3
