REMARK  5 active torsions:
REMARK  status: ('A' for Active; 'I' for Inactive)
REMARK    1  A    between atoms: C_2  and  C_3 
REMARK    2  A    between atoms: C_2  and  C_11 
REMARK    3  A    between atoms: C_2  and  N_17 
REMARK    4  A    between atoms: C_3  and  C_4 
REMARK    5  A    between atoms: C_7  and  O_10 
ROOT
ATOM      1  C   UNL d   1      -0.666   3.119  -1.289  0.00  0.00     0.058 C 
ATOM      2  C   UNL d   1      -0.753   1.593  -1.232  0.00  0.00     0.210 C 
ENDROOT
BRANCH   2   3
ATOM      3  C   UNL d   1      -0.013   1.086   0.008  0.00  0.00     0.088 C 
BRANCH   3   4
ATOM      4  C   UNL d   1      -0.718   1.572   1.248  0.00  0.00    -0.055 A 
ATOM      5  C   UNL d   1      -1.720   0.807   1.817  0.00  0.00     0.010 A 
ATOM      6  C   UNL d   1      -2.368   1.250   2.953  0.00  0.00     0.037 A 
ATOM      7  C   UNL d   1      -2.013   2.464   3.524  0.00  0.00     0.065 A 
ATOM      8  C   UNL d   1      -1.008   3.230   2.951  0.00  0.00     0.037 A 
ATOM      9  C   UNL d   1      -0.359   2.779   1.818  0.00  0.00     0.010 A 
BRANCH   7  10
ATOM     10  O   UNL d   1      -2.649   2.902   4.642  0.00  0.00    -0.361 OA
ATOM     11  H   UNL d   1      -2.234   2.618   5.468  0.00  0.00     0.217 HD
ENDBRANCH   7  10
ENDBRANCH   3   4
ENDBRANCH   2   3
BRANCH   2  12
ATOM     12  C   UNL d   1      -0.121   1.007  -2.468  0.00  0.00     0.210 C 
ATOM     13  O   UNL d   1       1.034   0.654  -2.447  0.00  0.00    -0.646 OA
ATOM     14  O   UNL d   1      -0.842   0.877  -3.593  0.00  0.00    -0.646 OA
ENDBRANCH   2  12
BRANCH   2  15
ATOM     15  N   UNL d   1      -2.170   1.194  -1.183  0.00  0.00    -0.060 N 
ATOM     16  H   UNL d   1      -2.246   0.180  -1.123  0.00  0.00     0.275 HD
ATOM     17  H   UNL d   1      -2.625   1.617  -0.376  0.00  0.00     0.275 HD
ATOM     18  H   UNL d   1      -2.640   1.514  -2.038  0.00  0.00     0.275 HD
ENDBRANCH   2  15
TORSDOF 5
