REMARK  8 active torsions:
REMARK  status: ('A' for Active; 'I' for Inactive)
REMARK    1  A    between atoms: C_11  and  O_12 
REMARK    2  A    between atoms: C_14  and  O_35 
REMARK    3  A    between atoms: C_19  and  O_30 
REMARK    4  A    between atoms: C_21  and  C_22 
REMARK    5  A    between atoms: C_21  and  C_28 
REMARK    6  A    between atoms: C_22  and  C_23 
REMARK    7  A    between atoms: C_23  and  C_24 
REMARK    8  A    between atoms: O_30  and  C_31 
ROOT
ATOM      1  C   UNL d   1      -0.932  -2.535  -0.150  0.00  0.00     0.013 C 
ATOM      2  C   UNL d   1      -0.222  -1.979  -1.397  0.00  0.00     0.015 C 
ATOM      3  C   UNL d   1       0.811  -0.944  -0.982  0.00  0.00     0.000 C 
ATOM      4  C   UNL d   1       1.871  -1.423  -0.007  0.00  0.00     0.007 C 
ATOM      5  C   UNL d   1       2.477  -0.170   0.642  0.00  0.00     0.011 C 
ATOM      6  C   UNL d   1       2.726   0.932  -0.382  0.00  0.00    -0.029 C 
ATOM      7  C   UNL d   1       2.736   0.436  -1.818  0.00  0.00     0.032 C 
ATOM      8  C   UNL d   1       1.512  -0.373  -2.216  0.00  0.00    -0.033 C 
ATOM      9  C   UNL d   1       0.481   0.396  -3.029  0.00  0.00     0.012 C 
ATOM     10  C   UNL d   1      -0.650  -0.546  -3.449  0.00  0.00     0.033 C 
ATOM     11  C   UNL d   1      -1.275  -1.272  -2.266  0.00  0.00     0.122 C 
ATOM     12  C   UNL d   1       2.027  -1.539  -3.078  0.00  0.00     0.016 C 
ATOM     13  C   UNL d   1       2.990   1.557  -2.826  0.00  0.00     0.124 C 
ATOM     14  C   UNL d   1       4.282   2.325  -2.473  0.00  0.00     0.042 C 
ATOM     15  C   UNL d   1       4.944   1.590  -1.335  0.00  0.00     0.029 C 
ATOM     16  C   UNL d   1       4.036   1.642  -0.081  0.00  0.00    -0.026 C 
ATOM     17  C   UNL d   1       4.968   0.983   0.947  0.00  0.00     0.047 C 
ATOM     18  C   UNL d   1       6.341   1.638   0.620  0.00  0.00     0.163 C 
ATOM     19  C   UNL d   1       6.242   2.151  -0.814  0.00  0.00    -0.033 C 
ATOM     20  C   UNL d   1       7.110   2.919  -1.459  0.00  0.00     0.024 C 
ATOM     21  C   UNL d   1       3.746   3.088   0.338  0.00  0.00     0.016 C 
ATOM     22  C   UNL d   1       1.625   1.996  -0.211  0.00  0.00     0.016 C 
ENDROOT
BRANCH  18  23
ATOM     23  O   UNL d   1       6.610   2.732   1.532  0.00  0.00    -0.312 OA
BRANCH  23  24
ATOM     24  C   UNL d   1       7.182   2.420   2.706  0.00  0.00     0.255 C 
ATOM     25  O   UNL d   1       7.527   1.283   2.927  0.00  0.00    -0.266 OA
ATOM     26  C   UNL d   1       7.393   3.487   3.748  0.00  0.00     0.126 C 
ENDBRANCH  23  24
ENDBRANCH  18  23
BRANCH  20  27
ATOM     27  C   UNL d   1       6.744   3.510  -2.796  0.00  0.00     0.049 C 
BRANCH  27  28
ATOM     28  C   UNL d   1       7.110   2.524  -3.907  0.00  0.00     0.032 C 
BRANCH  28  29
ATOM     29  C   UNL d   1       6.635   3.061  -5.232  0.00  0.00    -0.024 C 
ATOM     30  C   UNL d   1       7.501   3.341  -6.174  0.00  0.00    -0.091 C 
ATOM     31  C   UNL d   1       8.978   3.232  -5.896  0.00  0.00     0.042 C 
ATOM     32  C   UNL d   1       7.020   3.772  -7.536  0.00  0.00     0.042 C 
ENDBRANCH  28  29
ENDBRANCH  27  28
ENDBRANCH  20  27
BRANCH  20  33
ATOM     33  C   UNL d   1       8.428   3.193  -0.869  0.00  0.00     0.205 C 
ATOM     34  O   UNL d   1       8.767   2.627   0.151  0.00  0.00    -0.644 OA
ATOM     35  O   UNL d   1       9.261   4.072  -1.461  0.00  0.00    -0.644 OA
ENDBRANCH  20  33
BRANCH  13  36
ATOM     36  O   UNL d   1       3.162   1.000  -4.137  0.00  0.00    -0.395 OA
ATOM     37  H   UNL d   1       3.327   1.659  -4.825  0.00  0.00     0.210 HD
ENDBRANCH  13  36
BRANCH  11  38
ATOM     38  O   UNL d   1      -1.999  -0.337  -1.460  0.00  0.00    -0.395 OA
ATOM     39  H   UNL d   1      -2.683   0.149  -1.939  0.00  0.00     0.210 HD
ENDBRANCH  11  38
TORSDOF 8
