REMARK  7 active torsions:
REMARK  status: ('A' for Active; 'I' for Inactive)
REMARK    1  A    between atoms: C_7  and  S_9 
REMARK    2  A    between atoms: S_9  and  C_10 
REMARK    3  A    between atoms: C_10  and  C_11 
REMARK    4  A    between atoms: CA_12  and  C_32 
REMARK    5  A    between atoms: CA_15  and  N_18 
REMARK       I    between atoms: N_18  and  C_19 
REMARK    6  A    between atoms: C_19  and  C_21 
REMARK    7  A    between atoms: C_21  and  N_22 
ROOT
ATOM      1  C   UNL d   1      -0.702   1.513   1.260  0.00  0.00    -0.027 C 
ATOM      2  CA  UNL d   1      -1.972   1.840   1.429  0.00  0.00     0.119 C 
ATOM      3  N   UNL d   1      -2.815   1.997   0.316  0.00  0.00    -0.293 N 
ATOM      4  C   UNL d   1      -2.586   1.448  -1.058  0.00  0.00     0.187 C 
ATOM      5  CA  UNL d   1      -3.629   2.465  -1.509  0.00  0.00     0.210 C 
ATOM      6  C   UNL d   1      -3.892   2.722  -0.035  0.00  0.00     0.251 C 
ATOM      7  O   UNL d   1      -4.736   3.337   0.581  0.00  0.00    -0.271 OA
ATOM      8  S   UNL d   1      -0.858   1.869  -1.465  0.00  0.00    -0.136 SA
ATOM      9  C   UNL d   1       0.023   1.217  -0.012  0.00  0.00     0.113 C 
ENDROOT
BRANCH   5  10
ATOM     10  N   UNL d   1      -3.061   3.617  -2.214  0.00  0.00    -0.344 N 
ATOM     11  C   UNL d   1      -3.817   4.314  -3.085  0.00  0.00     0.238 C 
ATOM     12  O   UNL d   1      -4.968   3.988  -3.285  0.00  0.00    -0.272 OA
ATOM     13  H   UNL d   1      -2.140   3.878  -2.054  0.00  0.00     0.163 HD
BRANCH  11  14
ATOM     14  C   UNL d   1      -3.232   5.498  -3.810  0.00  0.00     0.254 C 
BRANCH  14  15
ATOM     15  N   UNL d   1      -4.247   6.080  -4.693  0.00  0.00    -0.262 N 
ATOM     16  N   UNL d   1      -4.914   5.460  -5.606  0.00  0.00    -0.225 N 
ATOM     17  N   UNL d   1      -5.713   6.295  -6.175  0.00  0.00    -0.227 N 
ATOM     18  HN  UNL d   1      -4.824   4.472  -5.840  1.00  0.00     0.210 HD
ATOM     19  N   UNL d   1      -5.571   7.457  -5.637  0.00  0.00    -0.279 N 
ATOM     20  HN  UNL d   1      -6.357   6.070  -6.933  1.00  0.00     0.210 HD
ATOM     21  C   UNL d   1      -4.662   7.361  -4.698  0.00  0.00     0.220 A 
ATOM     22  HN  UNL d   1      -6.078   8.304  -5.897  1.00  0.00     0.189 HD
ENDBRANCH  14  15
ENDBRANCH  11  14
ENDBRANCH   5  10
BRANCH   2  23
ATOM     23  C   UNL d   1      -2.506   2.039   2.788  0.00  0.00     0.227 C 
ATOM     24  O   UNL d   1      -3.028   1.114   3.378  0.00  0.00    -0.643 OA
ATOM     25  OXT UNL d   1      -2.416   3.248   3.377  0.00  0.00    -0.643 OA
ENDBRANCH   2  23
BRANCH   1  26
ATOM     26  C   UNL d   1       0.123   1.430   2.519  0.00  0.00     0.119 C 
BRANCH  26  27
ATOM     27  S   UNL d   1       0.341  -0.306   2.984  0.00  0.00    -0.099 SA
BRANCH  27  28
ATOM     28  C   UNL d   1       1.310  -0.113   4.442  0.00  0.00     0.128 A 
ATOM     29  N   UNL d   1       1.760   0.989   5.029  0.00  0.00    -0.287 N 
ATOM     30  N   UNL d   1       2.447   0.946   6.086  0.00  0.00    -0.297 N 
ATOM     31  HN  UNL d   1       1.544   1.895   4.614  1.00  0.00     0.188 HD
ATOM     32  C   UNL d   1       2.772  -0.192   6.666  0.00  0.00     0.065 A 
ATOM     33  HN  UNL d   1       2.763   1.820   6.505  1.00  0.00     0.187 HD
ATOM     34  C   UNL d   1       3.580  -0.447   7.913  0.00  0.00     0.078 C 
ATOM     35  S   UNL d   1       1.979  -1.348   5.553  0.00  0.00    -0.050 SA
ENDBRANCH  27  28
ENDBRANCH  26  27
ENDBRANCH   1  26
TORSDOF 7
