REMARK  10 active torsions:
REMARK  status: ('A' for Active; 'I' for Inactive)
REMARK    1  A    between atoms: C_2  and  C_3 
REMARK    2  A    between atoms: C_3  and  C_4 
REMARK    3  A    between atoms: C_4  and  C_5 
REMARK    4  A    between atoms: C_5  and  C_6 
REMARK    5  A    between atoms: C_6  and  C_7 
REMARK    6  A    between atoms: C_7  and  C_8 
REMARK    7  A    between atoms: C_8  and  C_9 
REMARK    8  A    between atoms: C_9  and  C_10 
REMARK    9  A    between atoms: C_10  and  O_12 
REMARK   10  A    between atoms: O_12  and  C_13 
ROOT
ATOM      1  C   UNL d   1      -2.389   1.054   0.019  0.00  0.00     0.140 C 
ATOM      2  C   UNL d   1      -2.928   0.890  -1.424  0.00  0.00     0.034 C 
ATOM      3  C   UNL d   1      -4.117   1.879  -1.567  0.00  0.00     0.008 C 
ATOM      4  C   UNL d   1      -3.977   2.788  -0.337  0.00  0.00     0.001 C 
ATOM      5  C   UNL d   1      -3.527   1.794   0.752  0.00  0.00    -0.013 C 
ATOM      6  C   UNL d   1      -3.109   2.499   2.019  0.00  0.00     0.012 C 
ATOM      7  C   UNL d   1      -3.808   3.867   2.124  0.00  0.00     0.006 C 
ATOM      8  C   UNL d   1      -5.220   3.746   1.583  0.00  0.00    -0.002 C 
ATOM      9  C   UNL d   1      -5.178   3.583   0.055  0.00  0.00    -0.005 C 
ATOM     10  C   UNL d   1      -6.531   3.075  -0.416  0.00  0.00     0.010 C 
ATOM     11  C   UNL d   1      -7.571   4.172  -0.131  0.00  0.00     0.035 C 
ATOM     12  C   UNL d   1      -7.475   4.611   1.319  0.00  0.00    -0.072 C 
ATOM     13  C   UNL d   1      -8.600   4.664   2.029  0.00  0.00     0.053 C 
ATOM     14  C   UNL d   1      -8.550   5.066   3.439  0.00  0.00     0.149 C 
ATOM     15  O   UNL d   1      -9.394   4.716   4.236  0.00  0.00    -0.293 OA
ATOM     16  C   UNL d   1      -7.380   5.943   3.841  0.00  0.00     0.084 C 
ATOM     17  C   UNL d   1      -6.102   5.254   3.366  0.00  0.00     0.017 C 
ATOM     18  C   UNL d   1      -6.120   4.948   1.886  0.00  0.00     0.019 C 
ATOM     19  C   UNL d   1      -4.614   0.759   1.057  0.00  0.00     0.018 C 
ENDROOT
BRANCH   1  20
ATOM     20  O   UNL d   1      -1.186   1.859   0.018  0.00  0.00    -0.315 OA
BRANCH  20  21
ATOM     21  C   UNL d   1      -0.014   1.204   0.009  0.00  0.00     0.259 C 
ATOM     22  O   UNL d   1       0.002  -0.004   0.002  0.00  0.00    -0.265 OA
BRANCH  21  23
ATOM     23  C   UNL d   1       1.280   1.975   0.000  0.00  0.00     0.111 C 
BRANCH  23  24
ATOM     24  C   UNL d   1       2.457   0.997  -0.016  0.00  0.00     0.010 C 
BRANCH  24  25
ATOM     25  C   UNL d   1       3.771   1.780  -0.024  0.00  0.00     0.000 C 
BRANCH  25  26
ATOM     26  C   UNL d   1       4.947   0.802  -0.041  0.00  0.00     0.000 C 
BRANCH  26  27
ATOM     27  C   UNL d   1       6.262   1.585  -0.049  0.00  0.00     0.000 C 
BRANCH  27  28
ATOM     28  C   UNL d   1       7.438   0.606  -0.066  0.00  0.00     0.000 C 
BRANCH  28  29
ATOM     29  C   UNL d   1       8.752   1.389  -0.074  0.00  0.00    -0.000 C 
BRANCH  29  30
ATOM     30  C   UNL d   1       9.929   0.411  -0.090  0.00  0.00    -0.005 C 
ATOM     31  C   UNL d   1      11.243   1.194  -0.099  0.00  0.00     0.005 C 
ENDBRANCH  29  30
ENDBRANCH  28  29
ENDBRANCH  27  28
ENDBRANCH  26  27
ENDBRANCH  25  26
ENDBRANCH  24  25
ENDBRANCH  23  24
ENDBRANCH  21  23
ENDBRANCH  20  21
ENDBRANCH   1  20
TORSDOF 10
