REMARK  3 active torsions:
REMARK  status: ('A' for Active; 'I' for Inactive)
REMARK    1  A    between atoms: C_4  and  C_7 
REMARK    2  A    between atoms: C_10  and  C_15 
REMARK    3  A    between atoms: C_11  and  C_13 
ROOT
ATOM      1  C   UNL d   1       1.074   3.568  -0.057  0.00  0.00     0.085 A 
ATOM      2  N   UNL d   1       2.137   4.319   0.184  0.00  0.00    -0.348 N 
ATOM      3  HN  UNL d   1       3.038   3.868   0.346  1.00  0.00     0.166 HD
ATOM      4  C   UNL d   1       2.060   5.629   0.220  0.00  0.00     0.067 A 
ATOM      5  C   UNL d   1       0.800   6.205   0.004  0.00  0.00     0.111 A 
ATOM      6  S   UNL d   1      -0.192   4.740  -0.247  0.00  0.00    -0.062 SA
ENDROOT
BRANCH   4   7
ATOM      7  C   UNL d   1       3.255   6.464   0.483  0.00  0.00    -0.008 A 
ATOM      8  C   UNL d   1       3.184   7.521   1.391  0.00  0.00     0.015 A 
ATOM      9  C   UNL d   1       4.300   8.295   1.633  0.00  0.00     0.024 A 
ATOM     10  C   UNL d   1       5.488   8.026   0.976  0.00  0.00     0.034 A 
ATOM     11  C   UNL d   1       5.564   6.978   0.074  0.00  0.00     0.024 A 
ATOM     12 CL   UNL d   1       6.889   9.004   1.286  0.00  0.00    -0.084 Cl
ATOM     13  C   UNL d   1       4.456   6.194  -0.172  0.00  0.00     0.015 A 
ENDBRANCH   4   7
BRANCH   5  14
ATOM     14  C   UNL d   1       0.419   7.571  -0.009  0.00  0.00     0.219 C 
ATOM     15  O   UNL d   1       1.267   8.440   0.067  0.00  0.00    -0.643 OA
ATOM     16  O   UNL d   1      -0.884   7.907  -0.108  0.00  0.00    -0.643 OA
ENDBRANCH   5  14
BRANCH   1  17
ATOM     17  C   UNL d   1       0.986   2.094  -0.137  0.00  0.00    -0.002 A 
ATOM     18  C   UNL d   1      -0.240   1.479  -0.397  0.00  0.00     0.014 A 
ATOM     19  C   UNL d   1      -0.316   0.104  -0.471  0.00  0.00     0.001 A 
ATOM     20  C   UNL d   1       0.820  -0.666  -0.288  0.00  0.00     0.000 A 
ATOM     21  C   UNL d   1       2.038  -0.062  -0.029  0.00  0.00     0.001 A 
ATOM     22  C   UNL d   1       2.127   1.312   0.048  0.00  0.00     0.014 A 
ENDBRANCH   1  17
TORSDOF 3
