REMARK  9 active torsions:
REMARK  status: ('A' for Active; 'I' for Inactive)
REMARK    1  A    between atoms: C_2  and  N_23 
REMARK    2  A    between atoms: C_3  and  N_23 
REMARK    3  A    between atoms: C_5  and  C_6 
REMARK    4  A    between atoms: C_5  and  N_23 
REMARK    5  A    between atoms: C_6  and  O_7 
REMARK    6  A    between atoms: O_7  and  C_8 
REMARK    7  A    between atoms: C_8  and  C_10 
REMARK    8  A    between atoms: C_10  and  C_11 
REMARK    9  A    between atoms: C_10  and  C_17 
ROOT
ATOM      1  C   UNL d   1       0.167  -0.206  -0.081  0.00  0.00     0.151 C 
ENDROOT
BRANCH   1   2
ATOM      2  C   UNL d   1      -0.561  -0.468   1.212  0.00  0.00     0.272 C 
ATOM      3  O   UNL d   1      -1.618  -1.053   1.203  0.00  0.00    -0.264 OA
BRANCH   2   4
ATOM      4  O   UNL d   1      -0.035  -0.052   2.375  0.00  0.00    -0.319 OA
BRANCH   4   5
ATOM      5  C   UNL d   1      -0.791  -0.339   3.581  0.00  0.00     0.206 C 
BRANCH   5   6
ATOM      6  C   UNL d   1      -0.039   0.208   4.796  0.00  0.00     0.261 C 
BRANCH   6   7
ATOM      7  N   UNL d   1       0.032   1.680   4.690  0.00  0.00    -0.070 N 
ATOM      8  H   UNL d   1       0.404   1.930   3.766  0.00  0.00     0.279 HD
BRANCH   7   9
ATOM      9  C   UNL d   1      -1.318   2.263   4.839  0.00  0.00     0.230 C 
ATOM     10  C   UNL d   1      -1.883   1.960   6.228  0.00  0.00     0.034 C 
ENDBRANCH   7   9
BRANCH   7  11
ATOM     11  C   UNL d   1       0.933   2.219   5.731  0.00  0.00     0.230 C 
ATOM     12  C   UNL d   1       1.265   3.673   5.389  0.00  0.00     0.034 C 
ENDBRANCH   7  11
ENDBRANCH   6   7
ENDBRANCH   5   6
ENDBRANCH   4   5
ENDBRANCH   2   4
ENDBRANCH   1   2
BRANCH   1  13
ATOM     13  C   UNL d   1       0.336   1.280  -0.269  0.00  0.00    -0.040 A 
ATOM     14  C   UNL d   1       1.584   1.803  -0.552  0.00  0.00     0.008 A 
ATOM     15  C   UNL d   1       1.740   3.165  -0.725  0.00  0.00     0.001 A 
ATOM     16  C   UNL d   1       0.647   4.005  -0.615  0.00  0.00     0.000 A 
ATOM     17  C   UNL d   1      -0.601   3.482  -0.333  0.00  0.00     0.001 A 
ATOM     18  C   UNL d   1      -0.757   2.119  -0.165  0.00  0.00     0.008 A 
ENDBRANCH   1  13
BRANCH   1  19
ATOM     19  C   UNL d   1      -0.630  -0.770  -1.229  0.00  0.00    -0.040 A 
ATOM     20  C   UNL d   1      -0.038  -1.651  -2.114  0.00  0.00     0.008 A 
ATOM     21  C   UNL d   1      -0.768  -2.169  -3.167  0.00  0.00     0.001 A 
ATOM     22  C   UNL d   1      -2.091  -1.805  -3.335  0.00  0.00     0.000 A 
ATOM     23  C   UNL d   1      -2.684  -0.924  -2.450  0.00  0.00     0.001 A 
ATOM     24  C   UNL d   1      -1.955  -0.410  -1.394  0.00  0.00     0.008 A 
ENDBRANCH   1  19
TORSDOF 9
