REMARK  7 active torsions:
REMARK  status: ('A' for Active; 'I' for Inactive)
REMARK    1  A    between atoms: C_1  and  C_2 
REMARK    2  A    between atoms: C_1  and  O_12 
REMARK    3  A    between atoms: C_3  and  O_11 
REMARK    4  A    between atoms: C_4  and  O_10 
REMARK    5  A    between atoms: C_5  and  C_7 
REMARK    6  A    between atoms: C_5  and  O_9 
REMARK    7  A    between atoms: C_7  and  O_8 
ROOT
ATOM      1  C   UNL d   1       0.996   4.770  -1.623  0.00  0.00     0.180 C 
ATOM      2  C   UNL d   1       2.169   5.133  -0.688  0.00  0.00     0.183 C 
ATOM      3  C   UNL d   1       2.539   3.755  -0.074  0.00  0.00     0.213 C 
ATOM      4  C   UNL d   1       1.145   3.085   0.008  0.00  0.00     0.213 C 
ATOM      5  O   UNL d   1       0.447   3.528  -1.167  0.00  0.00    -0.341 OA
ENDROOT
BRANCH   4   6
ATOM      6  C   UNL d   1       1.286   1.562  -0.002  0.00  0.00     0.235 C 
BRANCH   6   7
ATOM      7  O   UNL d   1      -0.011   0.963   0.007  0.00  0.00    -0.395 OA
ATOM      8  H   UNL d   1       0.002  -0.004   0.002  0.00  0.00     0.209 HD
ENDBRANCH   6   7
ENDBRANCH   4   6
BRANCH   4   9
ATOM      9  O   UNL d   1       0.456   3.511   1.185  0.00  0.00    -0.362 OA
ATOM     10  H   UNL d   1      -0.432   3.140   1.277  0.00  0.00     0.213 HD
ENDBRANCH   4   9
BRANCH   3  11
ATOM     11  O   UNL d   1       3.412   3.025  -0.938  0.00  0.00    -0.387 OA
ATOM     12  H   UNL d   1       4.297   3.408  -1.019  0.00  0.00     0.210 HD
ENDBRANCH   3  11
BRANCH   2  13
ATOM     13  O   UNL d   1       3.265   5.670  -1.431  0.00  0.00    -0.390 OA
ATOM     14  H   UNL d   1       3.056   6.486  -1.906  0.00  0.00     0.210 HD
ENDBRANCH   2  13
BRANCH   1  15
ATOM     15  C   UNL d   1      -0.073   5.863  -1.566  0.00  0.00     0.198 C 
BRANCH  15  16
ATOM     16  O   UNL d   1      -1.103   5.572  -2.513  0.00  0.00    -0.398 OA
ATOM     17  H   UNL d   1      -1.816   6.225  -2.532  0.00  0.00     0.209 HD
ENDBRANCH  15  16
ENDBRANCH   1  15
TORSDOF 7
