REMARK  11 active torsions:
REMARK  status: ('A' for Active; 'I' for Inactive)
REMARK    1  A    between atoms: C_1  and  C_2 
REMARK    2  A    between atoms: C_1  and  O_12 
REMARK    3  A    between atoms: C_2  and  C_3 
REMARK    4  A    between atoms: C_2  and  O_11 
REMARK    5  A    between atoms: C_3  and  C_4 
REMARK    6  A    between atoms: C_3  and  O_10 
REMARK    7  A    between atoms: C_4  and  C_5 
REMARK    8  A    between atoms: C_4  and  O_9 
REMARK    9  A    between atoms: C_5  and  C_6 
REMARK   10  A    between atoms: C_5  and  O_8 
REMARK   11  A    between atoms: C_6  and  O_7 
ROOT
ATOM      1  C   UNL d   1       0.742  -0.511   1.242  0.00  0.00     0.180 C 
ENDROOT
BRANCH   1   2
ATOM      2  C   UNL d   1       0.101   0.084   2.497  0.00  0.00     0.173 C 
BRANCH   2   3
ATOM      3  C   UNL d   1       0.915  -0.322   3.727  0.00  0.00     0.198 C 
BRANCH   3   4
ATOM      4  O   UNL d   1       0.254   0.134   4.908  0.00  0.00    -0.398 OA
ATOM      5  H   UNL d   1       0.715  -0.089   5.729  0.00  0.00     0.209 HD
ENDBRANCH   3   4
ENDBRANCH   2   3
BRANCH   2   6
ATOM      6  O   UNL d   1       0.077   1.508   2.391  0.00  0.00    -0.391 OA
ATOM      7  H   UNL d   1       0.951   1.911   2.299  0.00  0.00     0.210 HD
ENDBRANCH   2   6
ENDBRANCH   1   2
BRANCH   1   8
ATOM      8  C   UNL d   1       0.002  -0.004   0.002  0.00  0.00     0.180 C 
BRANCH   8   9
ATOM      9  C   UNL d   1       0.718  -0.497  -1.257  0.00  0.00     0.173 C 
BRANCH   9  10
ATOM     10  C   UNL d   1      -0.022   0.009  -2.496  0.00  0.00     0.198 C 
BRANCH  10  11
ATOM     11  O   UNL d   1       0.710  -0.352  -3.669  0.00  0.00    -0.398 OA
ATOM     12  H   UNL d   1       0.298  -0.062  -4.495  0.00  0.00     0.209 HD
ENDBRANCH  10  11
ENDBRANCH   9  10
BRANCH   9  13
ATOM     13  O   UNL d   1       0.738  -1.926  -1.265  0.00  0.00    -0.391 OA
ATOM     14  H   UNL d   1      -0.140  -2.332  -1.258  0.00  0.00     0.210 HD
ENDBRANCH   9  13
ENDBRANCH   8   9
BRANCH   8  15
ATOM     15  O   UNL d   1      -0.017   1.425   0.010  0.00  0.00    -0.390 OA
ATOM     16  H   UNL d   1       0.861   1.830   0.004  0.00  0.00     0.210 HD
ENDBRANCH   8  15
ENDBRANCH   1   8
BRANCH   1  17
ATOM     17  O   UNL d   1       2.113  -0.114   1.173  0.00  0.00    -0.390 OA
ATOM     18  H   UNL d   1       2.244   0.844   1.135  0.00  0.00     0.210 HD
ENDBRANCH   1  17
TORSDOF 11
