REMARK  11 active torsions:
REMARK  status: ('A' for Active; 'I' for Inactive)
REMARK    1  A    between atoms: C_3  and  O_47 
REMARK    2  A    between atoms: C_4  and  N_55 
REMARK    3  A    between atoms: C_6  and  O_8 
REMARK    4  A    between atoms: O_8  and  C_9 
REMARK    5  A    between atoms: C_11  and  C_33 
REMARK    6  A    between atoms: C_11  and  O_46 
REMARK    7  A    between atoms: C_15  and  O_32 
REMARK    8  A    between atoms: C_18  and  O_19 
REMARK    9  A    between atoms: C_26  and  O_30 
REMARK   10  A    between atoms: N_34  and  N_36 
REMARK       I    between atoms: N_36  and  C_37 
REMARK   11  A    between atoms: C_37  and  C_39 
ROOT
ATOM      1  C   UNL d   1      -0.978   3.411  -1.230  0.00  0.00     0.164 C 
ATOM      2  C   UNL d   1      -2.329   3.624  -1.910  0.00  0.00     0.081 C 
ATOM      3  C   UNL d   1      -2.495   5.121  -2.195  0.00  0.00     0.103 C 
ATOM      4  C   UNL d   1      -1.512   5.511  -3.297  0.00  0.00     0.086 C 
ATOM      5  C   UNL d   1      -0.121   5.040  -2.960  0.00  0.00    -0.009 A 
ATOM      6  C   UNL d   1       0.123   4.073  -2.018  0.00  0.00     0.014 A 
ATOM      7  C   UNL d   1       1.438   3.664  -1.755  0.00  0.00     0.090 A 
ATOM      8  C   UNL d   1       2.507   4.236  -2.441  0.00  0.00     0.066 A 
ATOM      9  C   UNL d   1       2.257   5.232  -3.405  0.00  0.00     0.066 A 
ATOM     10  C   UNL d   1       0.944   5.627  -3.656  0.00  0.00     0.088 A 
ATOM     11  C   UNL d   1       3.377   5.847  -4.139  0.00  0.00     0.197 A 
ATOM     12  O   UNL d   1       3.162   6.706  -4.972  0.00  0.00    -0.286 OA
ATOM     13  C   UNL d   1       4.763   5.418  -3.859  0.00  0.00     0.032 A 
ATOM     14  C   UNL d   1       5.827   5.992  -4.546  0.00  0.00     0.017 A 
ATOM     15  C   UNL d   1       7.125   5.587  -4.280  0.00  0.00     0.004 A 
ATOM     16  C   UNL d   1       7.376   4.613  -3.335  0.00  0.00     0.038 A 
ATOM     17  C   UNL d   1       6.326   4.024  -2.637  0.00  0.00     0.083 A 
ATOM     18  C   UNL d   1       5.011   4.423  -2.895  0.00  0.00     0.062 A 
ATOM     19  C   UNL d   1       3.889   3.807  -2.164  0.00  0.00     0.200 A 
ATOM     20  O   UNL d   1       4.105   2.945  -1.333  0.00  0.00    -0.286 OA
ENDROOT
BRANCH   3  21
ATOM     21  C   UNL d   1      -3.905   5.399  -2.650  0.00  0.00     0.034 C 
ATOM     22  N   UNL d   1      -4.726   4.431  -2.815  0.00  0.00    -0.303 N 
ATOM     23  HN  UNL d   1      -4.426   3.472  -2.638  1.00  0.00     0.186 HD
ATOM     24  C   UNL d   1      -4.347   6.815  -2.911  0.00  0.00     0.068 C 
BRANCH  22  25
ATOM     25  N   UNL d   1      -6.037   4.689  -3.238  0.00  0.00    -0.266 N 
ATOM     26  C   UNL d   1      -6.901   3.670  -3.411  0.00  0.00     0.270 C 
ATOM     27  O   UNL d   1      -6.544   2.527  -3.201  0.00  0.00    -0.266 OA
ATOM     28  H   UNL d   1      -6.321   5.600  -3.406  0.00  0.00     0.190 HD
BRANCH  26  29
ATOM     29  C   UNL d   1      -8.284   3.942  -3.857  0.00  0.00     0.033 A 
ATOM     30  C   UNL d   1      -9.182   2.888  -4.038  0.00  0.00     0.017 A 
ATOM     31  C   UNL d   1     -10.471   3.149  -4.454  0.00  0.00     0.001 A 
ATOM     32  C   UNL d   1     -10.875   4.451  -4.693  0.00  0.00     0.000 A 
ATOM     33  C   UNL d   1      -9.989   5.500  -4.516  0.00  0.00     0.001 A 
ATOM     34  C   UNL d   1      -8.699   5.253  -4.095  0.00  0.00     0.017 A 
ENDBRANCH  26  29
ENDBRANCH  22  25
ENDBRANCH   3  21
BRANCH   3  35
ATOM     35  O   UNL d   1      -2.214   5.871  -1.012  0.00  0.00    -0.383 OA
ATOM     36  H   UNL d   1      -2.283   6.829  -1.127  0.00  0.00     0.211 HD
ENDBRANCH   3  35
BRANCH   1  37
ATOM     37  O   UNL d   1      -0.714   2.010  -1.136  0.00  0.00    -0.351 OA
BRANCH  37  38
ATOM     38  C   UNL d   1      -1.308   1.381   0.001  0.00  0.00     0.263 C 
ATOM     39  C   UNL d   1      -1.184  -0.139  -0.133  0.00  0.00     0.096 C 
ATOM     40  C   UNL d   1      -1.769  -0.803   1.117  0.00  0.00     0.219 C 
ATOM     41  C   UNL d   1      -1.041  -0.268   2.354  0.00  0.00     0.177 C 
ATOM     42  C   UNL d   1      -1.171   1.257   2.392  0.00  0.00     0.151 C 
ATOM     43  C   UNL d   1      -2.646   1.641   2.519  0.00  0.00     0.042 C 
ATOM     44  O   UNL d   1      -0.636   1.810   1.188  0.00  0.00    -0.354 OA
BRANCH  40  45
ATOM     45  N   UNL d   1      -1.598  -2.265   1.052  0.00  0.00    -0.072 N 
ATOM     46  H   UNL d   1      -2.052  -2.634   0.218  0.00  0.00     0.274 HD
ATOM     47  H   UNL d   1      -0.607  -2.501   1.031  0.00  0.00     0.274 HD
ATOM     48  H   UNL d   1      -2.026  -2.692   1.883  0.00  0.00     0.274 HD
ENDBRANCH  40  45
BRANCH  41  49
ATOM     49  O   UNL d   1       0.340  -0.630   2.290  0.00  0.00    -0.391 OA
ATOM     50  H   UNL d   1       0.862  -0.323   3.043  0.00  0.00     0.210 HD
ENDBRANCH  41  49
ENDBRANCH  37  38
ENDBRANCH   1  37
BRANCH  10  51
ATOM     51  O   UNL d   1       0.695   6.585  -4.583  0.00  0.00    -0.359 OA
ATOM     52  H   UNL d   1       0.556   6.242  -5.476  0.00  0.00     0.217 HD
ENDBRANCH  10  51
BRANCH   7  53
ATOM     53  O   UNL d   1       1.670   2.705  -0.825  0.00  0.00    -0.359 OA
ATOM     54  H   UNL d   1       1.751   1.813  -1.192  0.00  0.00     0.217 HD
ENDBRANCH   7  53
BRANCH  17  55
ATOM     55  O   UNL d   1       6.577   3.066  -1.710  0.00  0.00    -0.355 OA
ATOM     56  C   UNL d   1       7.945   2.710  -1.500  0.00  0.00     0.210 C 
ENDBRANCH  17  55
TORSDOF 11
