REMARK  6 active torsions:
REMARK  status: ('A' for Active; 'I' for Inactive)
REMARK    1  A    between atoms: C_2  and  C_3 
REMARK    2  A    between atoms: C_2  and  C_7 
REMARK    3  A    between atoms: C_3  and  C_4 
REMARK    4  A    between atoms: C_4  and  C_5 
REMARK    5  A    between atoms: C_16  and  O_26 
REMARK    6  A    between atoms: C_22  and  O_24 
ROOT
ATOM      1  C   UNL d   1      -2.414   0.735  -0.918  0.00  0.00    -0.002 C 
ATOM      2  C   UNL d   1      -2.682   0.669   0.608  0.00  0.00     0.006 C 
ATOM      3  C   UNL d   1      -1.294   0.768   1.305  0.00  0.00     0.006 C 
ATOM      4  C   UNL d   1      -0.331   0.403   0.169  0.00  0.00     0.001 C 
ATOM      5  C   UNL d   1      -0.941   1.170  -1.019  0.00  0.00    -0.036 C 
ATOM      6  C   UNL d   1      -0.224   0.770  -2.288  0.00  0.00     0.010 C 
ATOM      7  C   UNL d   1       1.264   1.148  -2.132  0.00  0.00     0.007 C 
ATOM      8  C   UNL d   1       1.883   0.447  -0.939  0.00  0.00     0.001 C 
ATOM      9  C   UNL d   1       1.136   0.659   0.369  0.00  0.00     0.024 C 
ATOM     10  C   UNL d   1       1.439   1.942   1.116  0.00  0.00     0.123 C 
ATOM     11  C   UNL d   1       2.805   2.515   0.709  0.00  0.00     0.037 C 
ATOM     12  C   UNL d   1       3.726   1.322   0.505  0.00  0.00    -0.001 C 
ATOM     13  C   UNL d   1       3.383   0.644  -0.822  0.00  0.00    -0.036 C 
ATOM     14  C   UNL d   1       4.130  -0.694  -0.855  0.00  0.00     0.012 C 
ATOM     15  C   UNL d   1       5.636  -0.448  -0.764  0.00  0.00     0.032 C 
ATOM     16  C   UNL d   1       6.014   0.366   0.468  0.00  0.00     0.118 C 
ATOM     17  C   UNL d   1       5.203   1.662   0.567  0.00  0.00     0.037 C 
ATOM     18  C   UNL d   1       3.885   1.503  -1.982  0.00  0.00     0.016 C 
ATOM     19  C   UNL d   1      -0.908   2.687  -0.858  0.00  0.00     0.016 C 
ENDROOT
BRANCH   1  20
ATOM     20  C   UNL d   1      -3.310   1.787  -1.570  0.00  0.00    -0.013 C 
ATOM     21  C   UNL d   1      -3.022   1.842  -3.072  0.00  0.00     0.010 C 
BRANCH  20  22
ATOM     22  C   UNL d   1      -4.777   1.418  -1.345  0.00  0.00     0.015 C 
BRANCH  22  23
ATOM     23  C   UNL d   1      -5.673   2.534  -1.888  0.00  0.00     0.113 C 
BRANCH  23  24
ATOM     24  C   UNL d   1      -7.118   2.170  -1.667  0.00  0.00     0.172 C 
ATOM     25  O   UNL d   1      -7.403   1.126  -1.129  0.00  0.00    -0.648 OA
ATOM     26  O   UNL d   1      -8.089   3.006  -2.066  0.00  0.00    -0.648 OA
ENDBRANCH  23  24
ENDBRANCH  22  23
ENDBRANCH  20  22
ENDBRANCH   1  20
BRANCH  10  27
ATOM     27  O   UNL d   1       1.498   1.646   2.524  0.00  0.00    -0.395 OA
ATOM     28  H   UNL d   1       1.688   2.414   3.080  0.00  0.00     0.210 HD
ENDBRANCH  10  27
BRANCH  16  29
ATOM     29  O   UNL d   1       5.798  -0.419   1.644  0.00  0.00    -0.396 OA
ATOM     30  H   UNL d   1       6.280  -1.257   1.652  0.00  0.00     0.210 HD
ENDBRANCH  16  29
TORSDOF 6
