REMARK  1 active torsions:
REMARK  status: ('A' for Active; 'I' for Inactive)
REMARK    1  A    between atoms: C_4  and  C_7 
ROOT
ATOM      1  C   UNL d   1       3.982  -0.770  -0.040  0.00  0.00     0.135 A 
ATOM      2  C   UNL d   1       3.825   0.758  -0.030  0.00  0.00     0.155 A 
ATOM      3  N   UNL d   1       2.347   0.968  -0.015  0.00  0.00    -0.359 N 
ATOM      4  C   UNL d   1       1.478   2.146  -0.001  0.00  0.00     0.135 A 
ATOM      5  C   UNL d   1      -0.023   1.826   0.012  0.00  0.00     0.102 A 
ATOM      6  S   UNL d   1       0.002  -0.004   0.002  0.00  0.00    -0.093 SA
ATOM      7  C   UNL d   1       1.767  -0.272  -0.016  0.00  0.00     0.139 A 
ATOM      8  N   UNL d   1       2.605  -1.268  -0.030  0.00  0.00    -0.361 N 
ATOM      9  HN  UNL d   1       2.341  -2.254  -0.033  1.00  0.00     0.162 HD
ENDROOT
BRANCH   1  10
ATOM     10  C   UNL d   1       4.697  -1.219  -1.288  0.00  0.00    -0.034 A 
ATOM     11  C   UNL d   1       6.045  -1.520  -1.242  0.00  0.00     0.009 A 
ATOM     12  C   UNL d   1       6.701  -1.933  -2.386  0.00  0.00     0.001 A 
ATOM     13  C   UNL d   1       6.009  -2.045  -3.578  0.00  0.00     0.000 A 
ATOM     14  C   UNL d   1       4.660  -1.744  -3.624  0.00  0.00     0.001 A 
ATOM     15  C   UNL d   1       4.003  -1.336  -2.478  0.00  0.00     0.009 A 
ENDBRANCH   1  10
TORSDOF 1
