REMARK  6 active torsions:
REMARK  status: ('A' for Active; 'I' for Inactive)
REMARK    1  A    between atoms: C_3  and  O_12 
REMARK    2  A    between atoms: C_4  and  O_11 
REMARK    3  A    between atoms: C_6  and  C_7 
REMARK    4  A    between atoms: C_7  and  CA_8 
REMARK    5  A    between atoms: CA_8  and  C_9 
REMARK    6  A    between atoms: CA_8  and  N_18 
ROOT
ATOM      1  C   UNL d   1       1.175   1.784   0.000  0.00  0.00     0.010 A 
ATOM      2  C   UNL d   1      -0.013   1.076   0.008  0.00  0.00     0.040 A 
ATOM      3  C   UNL d   1      -1.222   1.752   0.017  0.00  0.00     0.098 A 
ATOM      4  C   UNL d   1      -1.237   3.144   0.030  0.00  0.00     0.099 A 
ATOM      5  C   UNL d   1      -0.043   3.847   0.023  0.00  0.00     0.046 A 
ATOM      6  C   UNL d   1       1.160   3.166   0.008  0.00  0.00    -0.053 A 
ENDROOT
BRANCH   6   7
ATOM      7  C   UNL d   1       2.458   3.932  -0.000  0.00  0.00     0.082 C 
BRANCH   7   8
ATOM      8  CA  UNL d   1       2.883   4.199  -1.446  0.00  0.00     0.287 C 
BRANCH   8   9
ATOM      9  C   UNL d   1       4.239   4.856  -1.457  0.00  0.00     0.204 C 
ATOM     10  O   UNL d   1       4.330   6.052  -1.603  0.00  0.00    -0.646 OA
ATOM     11  OXT UNL d   1       5.347   4.112  -1.304  0.00  0.00    -0.646 OA
ENDBRANCH   8   9
BRANCH   8  12
ATOM     12  N   UNL d   1       1.883   5.072  -2.085  0.00  0.00    -0.065 N 
ATOM     13  H1  UNL d   1       1.841   5.967  -1.601  0.00  0.00     0.275 HD
ATOM     14  H2  UNL d   1       2.128   5.226  -3.062  0.00  0.00     0.275 HD
ATOM     15  H3  UNL d   1       0.962   4.621  -2.037  0.00  0.00     0.275 HD
ENDBRANCH   8  12
ENDBRANCH   7   8
ENDBRANCH   6   7
BRANCH   4  16
ATOM     16  O   UNL d   1      -2.421   3.812   0.045  0.00  0.00    -0.358 OA
ATOM     17  H   UNL d   1      -2.772   4.010  -0.834  0.00  0.00     0.217 HD
ENDBRANCH   4  16
BRANCH   3  18
ATOM     18  O   UNL d   1      -2.391   1.058   0.019  0.00  0.00    -0.358 OA
ATOM     19  H   UNL d   1      -2.725   0.852   0.903  0.00  0.00     0.217 HD
ENDBRANCH   3  18
TORSDOF 6
