REMARK  5 active torsions:
REMARK  status: ('A' for Active; 'I' for Inactive)
REMARK    1  A    between atoms: CA_3  and  C_21 
REMARK    2  A    between atoms: CA_6  and  N_9 
REMARK       I    between atoms: N_9  and  C_10 
REMARK    3  A    between atoms: C_10  and  CA_12 
REMARK    4  A    between atoms: CA_12  and  C_13 
REMARK    5  A    between atoms: CA_12  and  N_26 
ROOT
ATOM      1  N   UNL d   1       1.332   1.667  -0.002  0.00  0.00    -0.343 N 
ATOM      2  C   UNL d   1       2.364   0.968  -0.515  0.00  0.00     0.253 C 
ATOM      3  O   UNL d   1       2.180  -0.141  -0.968  0.00  0.00    -0.271 OA
ATOM      4  H   UNL d   1       1.480   2.554   0.361  0.00  0.00     0.163 HD
ENDROOT
BRANCH   1   5
ATOM      5  CA  UNL d   1      -0.013   1.086   0.008  0.00  0.00     0.210 C 
ATOM      6  C   UNL d   1      -0.910   1.668   1.088  0.00  0.00     0.187 C 
ATOM      7  N   UNL d   1      -1.815   1.943  -0.074  0.00  0.00    -0.293 N 
ATOM      8  S   UNL d   1      -1.788   0.448   2.122  0.00  0.00    -0.136 SA
ATOM      9  CA  UNL d   1      -3.196   2.222  -0.003  0.00  0.00     0.118 C 
ATOM     10  C   UNL d   1      -0.926   1.676  -1.043  0.00  0.00     0.251 C 
ATOM     11  C   UNL d   1      -3.889   1.890   1.085  0.00  0.00    -0.041 C 
ATOM     12  C   UNL d   1      -5.366   2.185   1.029  0.00  0.00     0.047 C 
ATOM     13  C   UNL d   1      -3.400   1.262   2.349  0.00  0.00     0.112 C 
ATOM     14  O   UNL d   1      -0.876   1.839  -2.244  0.00  0.00    -0.271 OA
BRANCH   9  15
ATOM     15  C   UNL d   1      -3.867   2.888  -1.134  0.00  0.00     0.227 C 
ATOM     16  O   UNL d   1      -3.231   3.195  -2.123  0.00  0.00    -0.643 OA
ATOM     17  OXT UNL d   1      -5.186   3.157  -1.072  0.00  0.00    -0.643 OA
ENDBRANCH   9  15
ENDBRANCH   1   5
BRANCH   2  18
ATOM     18  CA  UNL d   1       3.748   1.565  -0.525  0.00  0.00     0.303 C 
BRANCH  18  19
ATOM     19  C   UNL d   1       4.371   1.412   0.839  0.00  0.00    -0.041 C 
ATOM     20  C   UNL d   1       4.660   0.031   1.344  0.00  0.00     0.063 C 
ATOM     21  C   UNL d   1       5.672   0.059   2.450  0.00  0.00    -0.026 C 
ATOM     22  C   UNL d   1       5.935   1.129   3.136  0.00  0.00    -0.027 C 
ATOM     23  C   UNL d   1       5.253   2.441   2.890  0.00  0.00     0.054 C 
ATOM     24  C   UNL d   1       4.639   2.483   1.523  0.00  0.00    -0.017 C 
ENDBRANCH  18  19
BRANCH  18  25
ATOM     25  N   UNL d   1       4.560   0.875  -1.542  0.00  0.00    -0.063 N 
ATOM     26  H1  UNL d   1       5.487   1.295  -1.593  0.00  0.00     0.275 HD
ATOM     27  H2  UNL d   1       4.648  -0.112  -1.308  0.00  0.00     0.275 HD
ATOM     28  H3  UNL d   1       4.101   0.963  -2.457  0.00  0.00     0.275 HD
ENDBRANCH  18  25
ENDBRANCH   2  18
TORSDOF 5
