REMARK  6 active torsions:
REMARK  status: ('A' for Active; 'I' for Inactive)
REMARK    1  A    between atoms: CA_3  and  C_33 
REMARK    2  A    between atoms: CA_7  and  N_10 
REMARK       I    between atoms: N_10  and  C_11 
REMARK    3  A    between atoms: C_11  and  CA_13 
REMARK    4  A    between atoms: CA_13  and  C_14 
REMARK    5  A    between atoms: CA_13  and  N_20 
REMARK       I    between atoms: N_20  and  C_21 
REMARK       I    between atoms: C_21  and  N_23 
REMARK    6  A    between atoms: N_26  and  S_29 
ROOT
ATOM      1  CA  UNL d   1      -1.274  -2.472   2.636  0.00  0.00     0.211 C 
ENDROOT
BRANCH   1   2
ATOM      2  C   UNL d   1      -0.887  -1.852   1.318  0.00  0.00     0.245 C 
ATOM      3  N   UNL d   1      -0.377  -0.605   1.284  0.00  0.00    -0.344 N 
ATOM      4  H   UNL d   1      -0.259  -0.106   2.108  0.00  0.00     0.163 HD
ATOM      5  O   UNL d   1      -1.034  -2.475   0.288  0.00  0.00    -0.271 OA
BRANCH   3   6
ATOM      6  CA  UNL d   1      -0.001  -0.003   0.003  0.00  0.00     0.199 C 
ATOM      7  C   UNL d   1      -0.022   1.527   0.012  0.00  0.00     0.160 C 
ATOM      8  N   UNL d   1       1.460   1.472  -0.003  0.00  0.00    -0.219 NA
ATOM      9  S   UNL d   1      -0.402   2.264   1.652  0.00  0.00    -0.135 SA
ATOM     10  CA  UNL d   1       2.128   1.960   1.207  0.00  0.00     0.186 C 
ATOM     11  C   UNL d   1       1.495   0.118  -0.201  0.00  0.00     0.227 C 
ATOM     12  C   UNL d   1       1.263   3.008   1.960  0.00  0.00     0.029 C 
ATOM     13  C   UNL d   1       1.595   3.043   3.453  0.00  0.00     0.029 C 
ATOM     14  C   UNL d   1       1.384   4.396   1.328  0.00  0.00     0.029 C 
ATOM     15  O   UNL d   1       2.379  -0.676  -0.445  0.00  0.00    -0.277 OA
BRANCH  10  16
ATOM     16  C   UNL d   1       3.441   2.591   0.823  0.00  0.00     0.193 C 
ATOM     17  O   UNL d   1       3.636   2.933  -0.319  0.00  0.00    -0.647 OA
ATOM     18  OXT UNL d   1       4.394   2.774   1.750  0.00  0.00    -0.647 OA
ENDBRANCH  10  16
ENDBRANCH   3   6
ENDBRANCH   1   2
BRANCH   1  19
ATOM     19  C   UNL d   1      -2.333  -1.627   3.297  0.00  0.00    -0.026 A 
ATOM     20  C   UNL d   1      -1.985  -0.744   4.302  0.00  0.00     0.010 A 
ATOM     21  C   UNL d   1      -2.957   0.030   4.908  0.00  0.00     0.001 A 
ATOM     22  C   UNL d   1      -4.276  -0.077   4.508  0.00  0.00     0.000 A 
ATOM     23  C   UNL d   1      -4.623  -0.960   3.503  0.00  0.00     0.001 A 
ATOM     24  C   UNL d   1      -3.651  -1.732   2.894  0.00  0.00     0.010 A 
ENDBRANCH   1  19
BRANCH   1  25
ATOM     25  N   UNL d   1      -1.798  -3.821   2.406  0.00  0.00    -0.325 N 
ATOM     26  C   UNL d   1      -1.739  -4.743   3.387  0.00  0.00     0.327 C 
ATOM     27  O   UNL d   1      -1.169  -4.486   4.430  0.00  0.00    -0.247 OA
ATOM     28  N   UNL d   1      -2.311  -5.951   3.212  0.00  0.00    -0.249 N 
ATOM     29  C   UNL d   1      -2.395  -6.912   4.142  0.00  0.00     0.342 A 
ATOM     30  C   UNL d   1      -2.936  -6.425   1.968  0.00  0.00     0.159 A 
ATOM     31  N   UNL d   1      -3.016  -8.021   3.720  0.00  0.00    -0.225 N 
ATOM     32  O   UNL d   1      -1.952  -6.786   5.266  0.00  0.00    -0.245 OA
ATOM     33  C   UNL d   1      -3.420  -7.846   2.317  0.00  0.00     0.167 A 
ATOM     34  H   UNL d   1      -2.188  -4.050   1.548  0.00  0.00     0.165 HD
BRANCH  31  35
ATOM     35  S   UNL d   1      -3.281  -9.378   4.633  0.00  0.00     0.232 S 
ATOM     36  O   UNL d   1      -3.312  -8.911   5.975  0.00  0.00    -0.206 OA
ATOM     37  O   UNL d   1      -4.424  -9.989   4.051  0.00  0.00    -0.206 OA
ATOM     38  C   UNL d   1      -1.815 -10.413   4.365  0.00  0.00     0.186 C 
ENDBRANCH  31  35
ENDBRANCH   1  25
TORSDOF 6
