REMARK  6 active torsions:
REMARK  status: ('A' for Active; 'I' for Inactive)
REMARK    1  A    between atoms: C_5  and  O_29 
REMARK    2  A    between atoms: C_8  and  C_9 
REMARK    3  A    between atoms: C_18  and  C_19 
REMARK    4  A    between atoms: C_19  and  C_21 
REMARK    5  A    between atoms: C_22  and  C_23 
REMARK    6  A    between atoms: C_23  and  C_25 
ROOT
ATOM      1  C   UNL d   1       3.062  -0.732   1.796  0.00  0.00     0.003 C 
ATOM      2  C   UNL d   1       1.887  -0.134   1.962  0.00  0.00    -0.075 C 
ATOM      3  C   UNL d   1       0.590  -0.916   2.115  0.00  0.00     0.034 C 
ATOM      4  C   UNL d   1      -0.476  -0.386   1.157  0.00  0.00     0.005 C 
ATOM      5  C   UNL d   1      -0.592   1.146   1.223  0.00  0.00     0.010 C 
ATOM      6  C   UNL d   1       0.759   1.720   0.864  0.00  0.00    -0.032 C 
ATOM      7  C   UNL d   1       1.744   1.358   2.012  0.00  0.00     0.023 C 
ATOM      8  C   UNL d   1       2.978   2.180   1.635  0.00  0.00     0.010 C 
ATOM      9  C   UNL d   1       2.364   3.537   1.190  0.00  0.00     0.007 C 
ATOM     10  C   UNL d   1       0.909   3.233   0.747  0.00  0.00     0.002 C 
ATOM     11  C   UNL d   1       1.249   1.085  -0.438  0.00  0.00     0.016 C 
ENDROOT
BRANCH   1  12
ATOM     12  C   UNL d   1       3.142  -2.200   1.756  0.00  0.00     0.003 C 
ATOM     13  C   UNL d   1       4.327  -2.800   1.717  0.00  0.00    -0.074 C 
ATOM     14  C   UNL d   1       5.537  -2.171   2.371  0.00  0.00     0.010 C 
ATOM     15  C   UNL d   1       4.501  -4.128   1.012  0.00  0.00     0.066 C 
ATOM     16  C   UNL d   1       5.101  -0.961   3.201  0.00  0.00     0.015 C 
ATOM     17  C   UNL d   1       6.190  -3.218   3.286  0.00  0.00     0.011 C 
ATOM     18  C   UNL d   1       6.497  -4.478   2.475  0.00  0.00     0.032 C 
ATOM     19  C   UNL d   1       5.193  -5.101   1.972  0.00  0.00     0.122 C 
BRANCH  19  20
ATOM     20  O   UNL d   1       5.482  -6.322   1.287  0.00  0.00    -0.395 OA
ATOM     21  H   UNL d   1       4.700  -6.771   0.939  0.00  0.00     0.210 HD
ENDBRANCH  19  20
ENDBRANCH   1  12
BRANCH  10  22
ATOM     22  C   UNL d   1      -0.086   3.927   1.680  0.00  0.00     0.008 C 
ATOM     23  C   UNL d   1       0.119   5.441   1.608  0.00  0.00     0.014 C 
BRANCH  22  24
ATOM     24  C   UNL d   1      -1.492   3.590   1.254  0.00  0.00    -0.026 C 
ATOM     25  C   UNL d   1      -2.298   2.978   2.085  0.00  0.00    -0.026 C 
BRANCH  25  26
ATOM     26  C   UNL d   1      -3.704   2.640   1.660  0.00  0.00     0.007 C 
ATOM     27  C   UNL d   1      -3.910   1.126   1.731  0.00  0.00     0.014 C 
BRANCH  26  28
ATOM     28  C   UNL d   1      -4.699   3.334   2.592  0.00  0.00    -0.015 C 
ATOM     29  C   UNL d   1      -4.494   4.849   2.521  0.00  0.00     0.010 C 
ATOM     30  C   UNL d   1      -6.127   2.992   2.160  0.00  0.00     0.010 C 
ENDBRANCH  26  28
ENDBRANCH  25  26
ENDBRANCH  22  24
ENDBRANCH  10  22
TORSDOF 6
