REMARK  9 active torsions:
REMARK  status: ('A' for Active; 'I' for Inactive)
REMARK    1  A    between atoms: C_2  and  O_36 
REMARK    2  A    between atoms: C_7  and  O_35 
REMARK    3  A    between atoms: C_12  and  O_34 
REMARK    4  A    between atoms: C_13  and  O_33 
REMARK    5  A    between atoms: C_17  and  N_45 
REMARK    6  A    between atoms: C_18  and  O_30 
REMARK    7  A    between atoms: C_19  and  C_22 
REMARK       I    between atoms: C_22  and  N_24 
REMARK    8  A    between atoms: N_24  and  C_25 
REMARK    9  A    between atoms: C_25  and  N_43 
ROOT
ATOM      1  C   UNL d   1       6.805  -1.771   0.852  0.00  0.00     0.052 C 
ATOM      2  C   UNL d   1       5.684  -2.573   0.190  0.00  0.00     0.090 C 
ATOM      3  C   UNL d   1       5.751  -3.991   0.687  0.00  0.00    -0.007 A 
ATOM      4  C   UNL d   1       6.928  -4.513   1.181  0.00  0.00     0.011 A 
ATOM      5  C   UNL d   1       6.978  -5.825   1.621  0.00  0.00     0.003 A 
ATOM      6  C   UNL d   1       5.853  -6.625   1.573  0.00  0.00     0.037 A 
ATOM      7  C   UNL d   1       4.660  -6.116   1.078  0.00  0.00     0.080 A 
ATOM      8  C   UNL d   1       4.608  -4.791   0.631  0.00  0.00     0.057 A 
ATOM      9  C   UNL d   1       3.351  -4.227   0.097  0.00  0.00     0.194 C 
ATOM     10  O   UNL d   1       2.444  -4.956  -0.262  0.00  0.00    -0.287 OA
ATOM     11  C   UNL d   1       3.224  -2.808   0.012  0.00  0.00     0.033 C 
ATOM     12  C   UNL d   1       2.104  -2.283  -0.519  0.00  0.00     0.097 C 
ATOM     13  C   UNL d   1       1.892  -0.816  -0.711  0.00  0.00     0.177 C 
ATOM     14  C   UNL d   1       2.820  -0.025   0.220  0.00  0.00     0.073 C 
ATOM     15  C   UNL d   1       4.249  -0.529   0.010  0.00  0.00     0.024 C 
ATOM     16  C   UNL d   1       4.336  -1.955   0.554  0.00  0.00     0.065 C 
ATOM     17  C   UNL d   1       2.704   1.460  -0.114  0.00  0.00     0.252 C 
ATOM     18  C   UNL d   1       1.270   1.898  -0.062  0.00  0.00     0.094 C 
ATOM     19  C   UNL d   1       0.221   1.020  -0.179  0.00  0.00     0.112 C 
ATOM     20  C   UNL d   1       0.474  -0.415  -0.369  0.00  0.00     0.208 C 
ATOM     21  O   UNL d   1      -0.411  -1.238  -0.258  0.00  0.00    -0.288 OA
ENDROOT
BRANCH  19  22
ATOM     22  C   UNL d   1      -1.163   1.519  -0.121  0.00  0.00     0.259 C 
ATOM     23  O   UNL d   1      -1.795   1.680  -1.147  0.00  0.00    -0.267 OA
ATOM     24  N   UNL d   1      -1.729   1.798   1.070  0.00  0.00    -0.333 N 
ATOM     25  H   UNL d   1      -1.202   1.739   1.883  0.00  0.00     0.164 HD
BRANCH  24  26
ATOM     26  C   UNL d   1      -3.139   2.189   1.137  0.00  0.00     0.359 C 
BRANCH  26  27
ATOM     27  N   UNL d   1      -3.978   0.989   1.435  0.00  0.00    -0.055 N 
ATOM     28  C   UNL d   1      -3.279   0.095   2.371  0.00  0.00     0.237 C 
ATOM     29  C   UNL d   1      -4.439  -0.759   2.940  0.00  0.00     0.029 C 
ATOM     30  C   UNL d   1      -5.596   0.260   3.052  0.00  0.00     0.029 C 
ATOM     31  C   UNL d   1      -5.235   1.388   2.068  0.00  0.00     0.237 C 
ATOM     32  H   UNL d   1      -4.174   0.490   0.559  0.00  0.00     0.281 HD
ENDBRANCH  26  27
ENDBRANCH  24  26
ENDBRANCH  19  22
BRANCH  18  33
ATOM     33  O   UNL d   1       1.003   3.201   0.110  0.00  0.00    -0.362 OA
ATOM     34  H   UNL d   1       0.012   3.339   0.124  0.00  0.00     0.217 HD
ENDBRANCH  18  33
BRANCH  17  35
ATOM     35  N   UNL d   1       3.512   2.227   0.857  0.00  0.00    -0.068 N 
ATOM     36  C   UNL d   1       3.664   3.623   0.395  0.00  0.00     0.270 C 
ATOM     37  C   UNL d   1       2.864   2.202   2.185  0.00  0.00     0.270 C 
ATOM     38  H   UNL d   1       4.441   1.797   0.931  0.00  0.00     0.279 HD
ENDBRANCH  17  35
BRANCH  13  39
ATOM     39  O   UNL d   1       2.171  -0.469  -2.068  0.00  0.00    -0.374 OA
ATOM     40  H   UNL d   1       1.590  -0.898  -2.712  0.00  0.00     0.211 HD
ENDBRANCH  13  39
BRANCH  12  41
ATOM     41  O   UNL d   1       1.133  -3.127  -0.921  0.00  0.00    -0.361 OA
ATOM     42  H   UNL d   1       0.367  -2.603  -1.292  0.00  0.00     0.217 HD
ENDBRANCH  12  41
BRANCH   2  43
ATOM     43  O   UNL d   1       5.853  -2.539  -1.229  0.00  0.00    -0.385 OA
ATOM     44  H   UNL d   1       6.689  -2.916  -1.534  0.00  0.00     0.211 HD
ENDBRANCH   2  43
BRANCH   7  45
ATOM     45  O   UNL d   1       3.553  -6.898   1.029  0.00  0.00    -0.360 OA
ATOM     46  H   UNL d   1       3.455  -7.391   0.202  0.00  0.00     0.217 HD
ENDBRANCH   7  45
TORSDOF 9
