REMARK  1 active torsions:
REMARK  status: ('A' for Active; 'I' for Inactive)
REMARK    1  A    between atoms: C_10  and  O_11 
ROOT
ATOM      1  C   UNL d   1       2.105  -0.566   3.898  0.00  0.00     0.018 C 
ATOM      2  C   UNL d   1       3.304   0.043   3.175  0.00  0.00    -0.014 C 
ATOM      3  C   UNL d   1       3.217   1.549   3.179  0.00  0.00     0.012 C 
ATOM      4  C   UNL d   1       2.087   1.996   2.236  0.00  0.00     0.006 C 
ATOM      5  C   UNL d   1       2.325   1.484   0.823  0.00  0.00    -0.002 C 
ATOM      6  C   UNL d   1       2.403  -0.049   0.794  0.00  0.00    -0.005 C 
ATOM      7  C   UNL d   1       3.488  -0.476   1.737  0.00  0.00     0.001 C 
ATOM      8  C   UNL d   1       3.721  -1.972   1.970  0.00  0.00     0.008 C 
ATOM      9  C   UNL d   1       4.660  -1.973   3.212  0.00  0.00     0.033 C 
ATOM     10  C   UNL d   1       4.564  -0.555   3.837  0.00  0.00     0.126 C 
ATOM     11  C   UNL d   1       1.035  -0.651   1.086  0.00  0.00     0.010 C 
ATOM     12  C   UNL d   1       0.099  -0.291  -0.079  0.00  0.00     0.035 C 
ATOM     13  C   UNL d   1       0.029   1.223  -0.156  0.00  0.00    -0.072 C 
ATOM     14  C   UNL d   1      -1.180   1.784  -0.186  0.00  0.00     0.053 C 
ATOM     15  C   UNL d   1      -1.330   3.236  -0.319  0.00  0.00     0.149 C 
ATOM     16  O   UNL d   1      -2.388   3.788  -0.087  0.00  0.00    -0.293 OA
ATOM     17  C   UNL d   1      -0.109   4.019  -0.754  0.00  0.00     0.084 C 
ATOM     18  C   UNL d   1       1.087   3.503   0.044  0.00  0.00     0.017 C 
ATOM     19  C   UNL d   1       1.300   2.013  -0.171  0.00  0.00     0.019 C 
ENDROOT
BRANCH  10  20
ATOM     20  O   UNL d   1       4.373  -0.639   5.247  0.00  0.00    -0.395 OA
ATOM     21  H   UNL d   1       5.128  -1.007   5.725  0.00  0.00     0.210 HD
ENDBRANCH  10  20
TORSDOF 1
