REMARK  5 active torsions:
REMARK  status: ('A' for Active; 'I' for Inactive)
REMARK    1  A    between atoms: N_9  and  C_14 
REMARK    2  A    between atoms: C_14  and  C_15 
REMARK    3  A    between atoms: C_15  and  N_30 
REMARK    4  A    between atoms: C_18  and  C_21 
REMARK    5  A    between atoms: C_21  and  C_23 
ROOT
ATOM      1  C   UNL d   1       6.200   6.727  -0.900  0.00  0.00     0.235 C 
ATOM      2  C   UNL d   1       7.529   7.478  -0.790  0.00  0.00     0.040 C 
ATOM      3  C   UNL d   1       8.155   7.603  -2.181  0.00  0.00     0.064 C 
ATOM      4  C   UNL d   1       8.345   6.204  -2.775  0.00  0.00     0.040 C 
ATOM      5  C   UNL d   1       6.992   5.490  -2.827  0.00  0.00     0.235 C 
ATOM      6  N   UNL d   1       6.454   5.381  -1.455  0.00  0.00    -0.070 N 
ATOM      7  H   UNL d   1       7.144   4.902  -0.864  0.00  0.00     0.279 HD
ENDROOT
BRANCH   6   8
ATOM      8  C   UNL d   1       5.203   4.595  -1.465  0.00  0.00     0.255 C 
BRANCH   8   9
ATOM      9  C   UNL d   1       4.790   4.308  -0.020  0.00  0.00     0.164 C 
BRANCH   9  10
ATOM     10  N   UNL d   1       3.561   3.510  -0.012  0.00  0.00    -0.264 N 
ATOM     11  C   UNL d   1       3.648   2.162  -0.021  0.00  0.00     0.264 A 
ATOM     12  C   UNL d   1       2.397   1.382  -0.013  0.00  0.00     0.059 A 
ATOM     13  O   UNL d   1       4.729   1.606  -0.034  0.00  0.00    -0.267 OA
ATOM     14  C   UNL d   1       1.177   2.081   0.002  0.00  0.00     0.052 A 
ATOM     15  C   UNL d   1       2.402  -0.011  -0.021  0.00  0.00     0.019 A 
ATOM     16  C   UNL d   1      -0.017   1.376   0.010  0.00  0.00     0.030 A 
ATOM     17  N   UNL d   1       1.203   3.468   0.009  0.00  0.00    -0.307 N 
ATOM     18  C   UNL d   1       0.002  -0.004   0.002  0.00  0.00     0.002 A 
ATOM     19  C   UNL d   1       1.204  -0.695  -0.013  0.00  0.00     0.001 A 
ATOM     20  C   UNL d   1       2.372   4.132   0.003  0.00  0.00     0.330 A 
ATOM     21  H   UNL d   1       0.369   3.964   0.019  0.00  0.00     0.170 HD
ATOM     22  O   UNL d   1       2.351   5.347   0.010  0.00  0.00    -0.246 OA
ENDBRANCH   9  10
ENDBRANCH   8   9
ENDBRANCH   6   8
BRANCH   3  23
ATOM     23  C   UNL d   1       9.493   8.290  -2.073  0.00  0.00     0.163 C 
ATOM     24  O   UNL d   1      10.507   7.631  -1.988  0.00  0.00    -0.292 OA
BRANCH  23  25
ATOM     25  C   UNL d   1       9.567   9.758  -2.070  0.00  0.00     0.010 A 
ATOM     26  C   UNL d   1      10.807  10.398  -1.970  0.00  0.00     0.018 A 
ATOM     27  C   UNL d   1      10.870  11.774  -1.967  0.00  0.00     0.043 A 
ATOM     28  C   UNL d   1       9.708  12.525  -2.065  0.00  0.00     0.116 A 
ATOM     29  C   UNL d   1       8.475  11.896  -2.165  0.00  0.00     0.043 A 
ATOM     30  F   UNL d   1       9.776  13.874  -2.063  0.00  0.00    -0.206 F 
ATOM     31  C   UNL d   1       8.399  10.521  -2.174  0.00  0.00     0.018 A 
ENDBRANCH  23  25
ENDBRANCH   3  23
TORSDOF 5
