REMARK  0 active torsions:
REMARK  status: ('A' for Active; 'I' for Inactive)
ROOT
ATOM      1  C   UNL d   1       1.154   2.055   0.002  0.00  0.00     0.140 A 
ATOM      2  C   UNL d   1       2.336   1.401  -0.013  0.00  0.00     0.199 A 
ATOM      3  C   UNL d   1       2.339  -0.016  -0.021  0.00  0.00     0.289 A 
ATOM      4  O   UNL d   1       3.392  -0.628  -0.034  0.00  0.00    -0.265 OA
ATOM      5  N   UNL d   1       1.165  -0.681  -0.013  0.00  0.00    -0.273 N 
ATOM      6  H   UNL d   1       1.160  -1.681  -0.019  0.00  0.00     0.173 HD
ATOM      7  C   UNL d   1       0.002  -0.004   0.002  0.00  0.00     0.327 A 
ATOM      8  O   UNL d   1      -1.048  -0.618   0.009  0.00  0.00    -0.247 OA
ATOM      9  N   UNL d   1      -0.016   1.341   0.009  0.00  0.00    -0.316 N 
ATOM     10  H   UNL d   1      -0.891   1.825   0.020  0.00  0.00     0.170 HD
ATOM     11  F   UNL d   1       3.499   2.088  -0.020  0.00  0.00    -0.199 F 
ENDROOT
TORSDOF 0
