REMARK  17 active torsions:
REMARK  status: ('A' for Active; 'I' for Inactive)
REMARK    1  A    between atoms: C_3  and  C_35 
REMARK    2  A    between atoms: C_3  and  O_37 
REMARK    3  A    between atoms: C_4  and  O_23 
REMARK    4  A    between atoms: C_5  and  O_7 
REMARK    5  A    between atoms: O_7  and  C_8 
REMARK    6  A    between atoms: C_9  and  N_20 
REMARK    7  A    between atoms: C_10  and  O_19 
REMARK    8  A    between atoms: C_11  and  N_16 
REMARK    9  A    between atoms: C_12  and  O_15 
REMARK   10  A    between atoms: C_13  and  O_14 
REMARK       I    between atoms: N_16  and  C_17 
REMARK       I    between atoms: C_17  and  N_18 
REMARK       I    between atoms: N_20  and  C_21 
REMARK       I    between atoms: C_21  and  N_22 
REMARK   11  A    between atoms: O_23  and  C_24 
REMARK   12  A    between atoms: C_25  and  N_58 
REMARK   13  A    between atoms: C_26  and  O_33 
REMARK   14  A    between atoms: C_27  and  O_32 
REMARK   15  A    between atoms: C_28  and  C_30 
REMARK   16  A    between atoms: C_30  and  O_31 
REMARK   17  A    between atoms: C_35  and  O_36 
ROOT
ATOM      1  C   UNL d   1       3.685  -0.557  -0.418  0.00  0.00     0.181 C 
ATOM      2  C   UNL d   1       2.378   0.051   0.097  0.00  0.00     0.161 C 
ATOM      3  C   UNL d   1       2.415   0.120   1.625  0.00  0.00     0.169 C 
ATOM      4  C   UNL d   1       3.592   0.991   2.067  0.00  0.00     0.161 C 
ATOM      5  C   UNL d   1       4.899   0.384   1.553  0.00  0.00     0.175 C 
ATOM      6  C   UNL d   1       4.862   0.314   0.025  0.00  0.00     0.180 C 
ENDROOT
BRANCH   1   7
ATOM      7  O   UNL d   1       3.651  -0.622  -1.845  0.00  0.00    -0.348 OA
BRANCH   7   8
ATOM      8  C   UNL d   1       4.322  -1.759  -2.392  0.00  0.00     0.293 C 
ATOM      9  C   UNL d   1       4.097  -1.841  -3.923  0.00  0.00     0.218 C 
ATOM     10  C   UNL d   1       5.330  -2.654  -4.388  0.00  0.00     0.135 C 
ATOM     11  C   UNL d   1       6.350  -2.481  -3.246  0.00  0.00     0.160 C 
ATOM     12  C   UNL d   1       7.635  -1.851  -3.786  0.00  0.00     0.043 C 
ATOM     13  O   UNL d   1       5.753  -1.614  -2.265  0.00  0.00    -0.350 OA
BRANCH   9  14
ATOM     14  O   UNL d   1       4.094  -0.538  -4.509  0.00  0.00    -0.346 OA
BRANCH  14  15
ATOM     15  C   UNL d   1       3.149  -0.379  -5.569  0.00  0.00     0.294 C 
ATOM     16  O   UNL d   1       1.824  -0.402  -5.033  0.00  0.00    -0.349 OA
ATOM     17  C   UNL d   1       0.795  -0.276  -6.016  0.00  0.00     0.179 C 
ATOM     18  C   UNL d   1       0.942   1.066  -6.738  0.00  0.00     0.180 C 
ATOM     19  C   UNL d   1       2.336   1.148  -7.367  0.00  0.00     0.185 C 
ATOM     20  C   UNL d   1       3.390   0.958  -6.272  0.00  0.00     0.271 C 
BRANCH  17  21
ATOM     21  C   UNL d   1      -0.573  -0.341  -5.334  0.00  0.00     0.198 C 
BRANCH  21  22
ATOM     22  O   UNL d   1      -0.765  -1.642  -4.774  0.00  0.00    -0.398 OA
ATOM     23  H   UNL d   1      -1.579  -1.733  -4.260  0.00  0.00     0.209 HD
ENDBRANCH  21  22
ENDBRANCH  17  21
BRANCH  18  24
ATOM     24  O   UNL d   1       0.777   2.133  -5.801  0.00  0.00    -0.390 OA
ATOM     25  H   UNL d   1      -0.072   2.122  -5.338  0.00  0.00     0.210 HD
ENDBRANCH  18  24
BRANCH  19  26
ATOM     26  O   UNL d   1       2.508   2.426  -7.983  0.00  0.00    -0.391 OA
ATOM     27  H   UNL d   1       1.868   2.615  -8.683  0.00  0.00     0.210 HD
ENDBRANCH  19  26
BRANCH  20  28
ATOM     28  N   UNL d   1       3.279   2.058  -5.295  0.00  0.00    -0.068 N 
ATOM     29  C   UNL d   1       4.565   2.259  -4.602  0.00  0.00     0.267 C 
ATOM     30  H   UNL d   1       2.555   1.825  -4.605  0.00  0.00     0.277 HD
ATOM     31  H   UNL d   1       3.019   2.922  -5.786  0.00  0.00     0.277 HD
ENDBRANCH  20  28
ENDBRANCH  14  15
ENDBRANCH   9  14
BRANCH  10  32
ATOM     32  C   UNL d   1       5.887  -2.082  -5.694  0.00  0.00     0.207 C 
BRANCH  32  33
ATOM     33  O   UNL d   1       7.022  -2.847  -6.103  0.00  0.00    -0.398 OA
ATOM     34  H   UNL d   1       7.427  -2.540  -6.926  0.00  0.00     0.209 HD
ENDBRANCH  32  33
ENDBRANCH  10  32
BRANCH  10  35
ATOM     35  O   UNL d   1       4.988  -4.032  -4.553  0.00  0.00    -0.382 OA
ATOM     36  H   UNL d   1       5.724  -4.587  -4.843  0.00  0.00     0.210 HD
ENDBRANCH  10  35
ENDBRANCH   7   8
ENDBRANCH   1   7
BRANCH   6  37
ATOM     37  O   UNL d   1       4.707   1.631  -0.508  0.00  0.00    -0.390 OA
ATOM     38  H   UNL d   1       5.419   2.240  -0.267  0.00  0.00     0.210 HD
ENDBRANCH   6  37
BRANCH   2  39
ATOM     39  N   UNL d   1       2.219   1.400  -0.450  0.00  0.00    -0.217 N 
ATOM     40  C   UNL d   1       0.966   1.955  -0.558  0.00  0.00     0.665 C 
ATOM     41  N   UNL d   1       0.816   3.220  -1.074  0.00  0.00    -0.235 N 
ATOM     42  N   UNL d   1      -0.136   1.325  -0.175  0.00  0.00    -0.235 N 
ATOM     43  H   UNL d   1      -0.058   3.640  -1.082  0.00  0.00     0.174 HD
ATOM     44  H   UNL d   1       1.585   3.693  -1.430  0.00  0.00     0.174 HD
ATOM     45  H   UNL d   1      -0.088   0.352   0.128  0.00  0.00     0.174 HD
ATOM     46  H   UNL d   1      -1.037   1.816  -0.184  0.00  0.00     0.174 HD
ATOM     47  H   UNL d   1       2.998   1.903  -0.735  0.00  0.00     0.178 HD
ENDBRANCH   2  39
BRANCH   5  48
ATOM     48  O   UNL d   1       5.998   1.198   1.966  0.00  0.00    -0.391 OA
ATOM     49  H   UNL d   1       6.861   0.872   1.675  0.00  0.00     0.210 HD
ENDBRANCH   5  48
BRANCH   3  50
ATOM     50  O   UNL d   1       1.195   0.687   2.105  0.00  0.00    -0.391 OA
ATOM     51  H   UNL d   1       1.149   0.762   3.068  0.00  0.00     0.210 HD
ENDBRANCH   3  50
BRANCH   4  52
ATOM     52  N   UNL d   1       3.433   2.341   1.521  0.00  0.00    -0.217 N 
ATOM     53  C   UNL d   1       2.624   3.251   2.160  0.00  0.00     0.665 C 
ATOM     54  N   UNL d   1       2.474   4.517   1.647  0.00  0.00    -0.235 N 
ATOM     55  N   UNL d   1       2.016   2.844   3.265  0.00  0.00    -0.235 N 
ATOM     56  H   UNL d   1       2.940   4.770   0.835  0.00  0.00     0.174 HD
ATOM     57  H   UNL d   1       1.903   5.159   2.098  0.00  0.00     0.174 HD
ATOM     58  H   UNL d   1       1.405   3.482   3.776  0.00  0.00     0.174 HD
ATOM     59  H   UNL d   1       2.160   1.887   3.608  0.00  0.00     0.174 HD
ATOM     60  H   UNL d   1       3.898   2.594   0.708  0.00  0.00     0.178 HD
ENDBRANCH   4  52
TORSDOF 17
