REMARK  22 active torsions:
REMARK  status: ('A' for Active; 'I' for Inactive)
REMARK    1  A    between atoms: C_2  and  N_64 
REMARK    2  A    between atoms: C_3  and  O_37 
REMARK    3  A    between atoms: C_4  and  O_18 
REMARK    4  A    between atoms: C_5  and  O_7 
REMARK    5  A    between atoms: C_6  and  N_56 
REMARK    6  A    between atoms: O_7  and  C_8 
REMARK    7  A    between atoms: C_9  and  N_58 
REMARK    8  A    between atoms: C_10  and  O_17 
REMARK    9  A    between atoms: C_11  and  O_16 
REMARK   10  A    between atoms: C_12  and  C_14 
REMARK   11  A    between atoms: C_14  and  O_15 
REMARK   12  A    between atoms: O_18  and  C_19 
REMARK   13  A    between atoms: C_20  and  O_36 
REMARK   14  A    between atoms: C_21  and  O_26 
REMARK   15  A    between atoms: C_22  and  C_24 
REMARK   16  A    between atoms: C_24  and  O_25 
REMARK   17  A    between atoms: O_26  and  C_27 
REMARK   18  A    between atoms: C_28  and  N_62 
REMARK   19  A    between atoms: C_29  and  O_35 
REMARK   20  A    between atoms: C_30  and  O_34 
REMARK   21  A    between atoms: C_31  and  C_33 
REMARK   22  A    between atoms: C_33  and  N_60 
ROOT
ATOM      1  C   UNL d   1      -4.273   2.938  -1.185  0.00  0.00     0.071 C 
ATOM      2  C   UNL d   1      -5.421   1.956  -1.425  0.00  0.00     0.216 C 
ATOM      3  C   UNL d   1      -4.860   0.540  -1.569  0.00  0.00     0.180 C 
ATOM      4  C   UNL d   1      -3.893   0.493  -2.753  0.00  0.00     0.186 C 
ATOM      5  C   UNL d   1      -2.744   1.475  -2.514  0.00  0.00     0.186 C 
ATOM      6  C   UNL d   1      -3.306   2.891  -2.370  0.00  0.00     0.217 C 
ENDROOT
BRANCH   4   7
ATOM      7  O   UNL d   1      -3.368  -0.830  -2.888  0.00  0.00    -0.348 OA
BRANCH   7   8
ATOM      8  C   UNL d   1      -4.143  -1.679  -3.736  0.00  0.00     0.292 C 
ATOM      9  O   UNL d   1      -4.003  -1.282  -5.117  0.00  0.00    -0.348 OA
ATOM     10  C   UNL d   1      -4.357  -2.421  -5.919  0.00  0.00     0.180 C 
ATOM     11  C   UNL d   1      -4.077  -3.680  -5.076  0.00  0.00     0.189 C 
ATOM     12  C   UNL d   1      -3.586  -3.125  -3.717  0.00  0.00     0.205 C 
BRANCH  10  13
ATOM     13  C   UNL d   1      -3.509  -2.445  -7.193  0.00  0.00     0.198 C 
BRANCH  13  14
ATOM     14  O   UNL d   1      -3.851  -1.326  -8.014  0.00  0.00    -0.398 OA
ATOM     15  H   UNL d   1      -3.351  -1.278  -8.840  0.00  0.00     0.209 HD
ENDBRANCH  13  14
ENDBRANCH  10  13
BRANCH  11  16
ATOM     16  O   UNL d   1      -3.061  -4.476  -5.688  0.00  0.00    -0.348 OA
BRANCH  16  17
ATOM     17  C   UNL d   1      -3.185  -5.876  -5.430  0.00  0.00     0.294 C 
ATOM     18  O   UNL d   1      -4.324  -6.390  -6.124  0.00  0.00    -0.349 OA
ATOM     19  C   UNL d   1      -4.556  -7.784  -5.913  0.00  0.00     0.181 C 
ATOM     20  C   UNL d   1      -3.352  -8.583  -6.417  0.00  0.00     0.179 C 
ATOM     21  C   UNL d   1      -2.091  -8.105  -5.690  0.00  0.00     0.184 C 
ATOM     22  C   UNL d   1      -1.925  -6.599  -5.915  0.00  0.00     0.269 C 
BRANCH  19  23
ATOM     23  C   UNL d   1      -5.810  -8.214  -6.678  0.00  0.00     0.264 C 
BRANCH  23  24
ATOM     24  N   UNL d   1      -6.966  -7.455  -6.170  0.00  0.00    -0.077 N 
ATOM     25  H   UNL d   1      -6.800  -6.455  -6.272  0.00  0.00     0.274 HD
ATOM     26  H   UNL d   1      -7.807  -7.713  -6.684  0.00  0.00     0.274 HD
ATOM     27  H   UNL d   1      -7.102  -7.671  -5.176  0.00  0.00     0.274 HD
ENDBRANCH  23  24
ENDBRANCH  19  23
BRANCH  20  28
ATOM     28  O   UNL d   1      -3.198  -8.379  -7.823  0.00  0.00    -0.390 OA
ATOM     29  H   UNL d   1      -2.449  -8.853  -8.210  0.00  0.00     0.210 HD
ENDBRANCH  20  28
BRANCH  21  30
ATOM     30  O   UNL d   1      -0.950  -8.794  -6.205  0.00  0.00    -0.391 OA
ATOM     31  H   UNL d   1      -0.988  -9.754  -6.096  0.00  0.00     0.210 HD
ENDBRANCH  21  30
BRANCH  22  32
ATOM     32  N   UNL d   1      -1.750  -6.344  -7.356  0.00  0.00    -0.068 N 
ATOM     33  H   UNL d   1      -1.622  -5.347  -7.521  0.00  0.00     0.275 HD
ATOM     34  H   UNL d   1      -0.940  -6.853  -7.704  0.00  0.00     0.275 HD
ATOM     35  H   UNL d   1      -2.587  -6.661  -7.859  0.00  0.00     0.275 HD
ENDBRANCH  22  32
ENDBRANCH  16  17
ENDBRANCH  11  16
BRANCH  12  36
ATOM     36  O   UNL d   1      -2.158  -3.120  -3.655  0.00  0.00    -0.388 OA
ATOM     37  H   UNL d   1      -1.800  -2.700  -2.861  0.00  0.00     0.210 HD
ENDBRANCH  12  36
ENDBRANCH   7   8
ENDBRANCH   4   7
BRANCH   3  38
ATOM     38  O   UNL d   1      -4.166   0.179  -0.373  0.00  0.00    -0.391 OA
ATOM     39  H   UNL d   1      -4.719   0.188   0.421  0.00  0.00     0.210 HD
ENDBRANCH   3  38
BRANCH   5  40
ATOM     40  O   UNL d   1      -2.050   1.114  -1.318  0.00  0.00    -0.349 OA
BRANCH  40  41
ATOM     41  C   UNL d   1      -0.858   0.359  -1.543  0.00  0.00     0.294 C 
ATOM     42  O   UNL d   1       0.143   1.207  -2.108  0.00  0.00    -0.349 OA
ATOM     43  C   UNL d   1       1.375   0.542  -2.398  0.00  0.00     0.179 C 
ATOM     44  C   UNL d   1       1.969  -0.017  -1.103  0.00  0.00     0.180 C 
ATOM     45  C   UNL d   1       0.956  -0.965  -0.453  0.00  0.00     0.184 C 
ATOM     46  C   UNL d   1      -0.354  -0.207  -0.213  0.00  0.00     0.269 C 
BRANCH  43  47
ATOM     47  C   UNL d   1       2.356   1.536  -3.023  0.00  0.00     0.198 C 
BRANCH  47  48
ATOM     48  O   UNL d   1       1.855   1.969  -4.289  0.00  0.00    -0.398 OA
ATOM     49  H   UNL d   1       2.428   2.603  -4.743  0.00  0.00     0.209 HD
ENDBRANCH  47  48
ENDBRANCH  43  47
BRANCH  44  50
ATOM     50  O   UNL d   1       2.259   1.058  -0.208  0.00  0.00    -0.390 OA
ATOM     51  H   UNL d   1       2.895   1.698  -0.555  0.00  0.00     0.210 HD
ENDBRANCH  44  50
BRANCH  45  52
ATOM     52  O   UNL d   1       1.472  -1.434   0.794  0.00  0.00    -0.391 OA
ATOM     53  H   UNL d   1       2.302  -1.924   0.716  0.00  0.00     0.210 HD
ENDBRANCH  45  52
BRANCH  46  54
ATOM     54  N   UNL d   1      -0.102   0.905   0.719  0.00  0.00    -0.068 N 
ATOM     55  H   UNL d   1      -0.969   1.408   0.906  0.00  0.00     0.275 HD
ATOM     56  H   UNL d   1       0.277   0.549   1.595  0.00  0.00     0.275 HD
ATOM     57  H   UNL d   1       0.576   1.552   0.299  0.00  0.00     0.275 HD
ENDBRANCH  46  54
ENDBRANCH  40  41
ENDBRANCH   5  40
BRANCH   2  58
ATOM     58  N   UNL d   1      -6.334   1.996  -0.269  0.00  0.00    -0.072 N 
ATOM     59  H   UNL d   1      -6.734   2.927  -0.171  0.00  0.00     0.274 HD
ATOM     60  H   UNL d   1      -7.082   1.316  -0.391  0.00  0.00     0.274 HD
ATOM     61  H   UNL d   1      -5.809   1.766   0.584  0.00  0.00     0.274 HD
ENDBRANCH   2  58
BRANCH   6  62
ATOM     62  N   UNL d   1      -2.191   3.832  -2.162  0.00  0.00    -0.072 N 
ATOM     63  H   UNL d   1      -2.551   4.772  -2.011  0.00  0.00     0.274 HD
ATOM     64  H   UNL d   1      -1.639   3.546  -1.355  0.00  0.00     0.274 HD
ATOM     65  H   UNL d   1      -1.590   3.833  -2.995  0.00  0.00     0.274 HD
ENDBRANCH   6  62
TORSDOF 22
