REMARK  3 active torsions:
REMARK  status: ('A' for Active; 'I' for Inactive)
REMARK    1  A    between atoms: C_3  and  S_8 
REMARK    2  A    between atoms: C_6  and  N_7 
REMARK    3  A    between atoms: S_8  and  N_11 
REMARK       I    between atoms: N_11  and  C_12 
REMARK       I    between atoms: C_12  and  N_13 
ROOT
ATOM      1  S   UNL d   1       1.778  -2.009   0.498  0.00  0.00     0.276 S 
ATOM      2  O   UNL d   1       3.105  -2.456   0.743  0.00  0.00    -0.200 OA
ATOM      3  O   UNL d   1       0.716  -2.237   1.413  0.00  0.00    -0.200 OA
ENDROOT
BRANCH   1   4
ATOM      4  C   UNL d   1       1.871  -0.265   0.258  0.00  0.00     0.080 A 
ATOM      5  C   UNL d   1       0.757   0.522   0.487  0.00  0.00     0.027 A 
ATOM      6  C   UNL d   1       0.826   1.889   0.301  0.00  0.00     0.030 A 
ATOM      7  C   UNL d   1       2.015   2.472  -0.117  0.00  0.00     0.025 A 
ATOM      8  C   UNL d   1       3.132   1.678  -0.346  0.00  0.00     0.030 A 
ATOM      9  C   UNL d   1       3.056   0.312  -0.158  0.00  0.00     0.027 A 
BRANCH   7  10
ATOM     10  N   UNL d   1       2.088   3.854  -0.307  0.00  0.00    -0.399 N 
ATOM     11  H   UNL d   1       1.308   4.408  -0.147  0.00  0.00     0.156 HD
ATOM     12  H   UNL d   1       2.919   4.260  -0.599  0.00  0.00     0.156 HD
ENDBRANCH   7  10
ENDBRANCH   1   4
BRANCH   1  13
ATOM     13  N   UNL d   1       1.312  -2.677  -0.944  0.00  0.00    -0.113 N 
ATOM     14  C   UNL d   1       2.137  -2.590  -2.041  0.00  0.00     0.679 C 
ATOM     15  N   UNL d   1       1.750  -3.145  -3.237  0.00  0.00    -0.234 N 
ATOM     16  N   UNL d   1       3.292  -1.960  -1.878  0.00  0.00    -0.234 N 
ATOM     17  H   UNL d   1       0.895  -3.597  -3.309  0.00  0.00     0.174 HD
ATOM     18  H   UNL d   1       2.333  -3.084  -4.011  0.00  0.00     0.174 HD
ATOM     19  H   UNL d   1       3.938  -1.870  -2.662  0.00  0.00     0.174 HD
ATOM     20  H   UNL d   1       3.535  -1.562  -0.963  0.00  0.00     0.174 HD
ATOM     21  H   UNL d   1       0.457  -3.129  -1.015  0.00  0.00     0.197 HD
ENDBRANCH   1  13
TORSDOF 3
