REMARK  8 active torsions:
REMARK  status: ('A' for Active; 'I' for Inactive)
REMARK    1  A    between atoms: C_2  and  C_3 
REMARK    2  A    between atoms: C_3  and  C_6 
REMARK    3  A    between atoms: C_6  and  O_8 
REMARK    4  A    between atoms: O_8  and  C_9 
REMARK    5  A    between atoms: C_15  and  C_20 
REMARK    6  A    between atoms: C_20  and  C_21 
REMARK    7  A    between atoms: C_21  and  C_22 
REMARK    8  A    between atoms: C_24  and  O_29 
ROOT
ATOM      1  C   UNL d   1      -4.772   1.410   3.812  0.00  0.00     0.141 C 
ATOM      2  C   UNL d   1      -5.323   2.768   3.382  0.00  0.00     0.041 C 
ATOM      3  C   UNL d   1      -6.439   2.534   2.355  0.00  0.00     0.007 C 
ATOM      4  C   UNL d   1      -7.525   1.737   3.030  0.00  0.00    -0.015 C 
ATOM      5  C   UNL d   1      -7.239   0.859   3.972  0.00  0.00    -0.055 C 
ATOM      6  C   UNL d   1      -5.843   0.532   4.414  0.00  0.00     0.052 C 
ATOM      7  C   UNL d   1      -5.809   0.555   5.944  0.00  0.00     0.004 C 
ATOM      8  C   UNL d   1      -6.755  -0.524   6.472  0.00  0.00     0.009 C 
ATOM      9  C   UNL d   1      -8.105  -0.440   5.829  0.00  0.00    -0.022 C 
ATOM     10  C   UNL d   1      -8.345   0.180   4.687  0.00  0.00     0.004 C 
ATOM     11  C   UNL d   1      -6.151  -1.901   6.185  0.00  0.00     0.014 C 
ATOM     12  C   UNL d   1      -6.998   3.878   1.883  0.00  0.00     0.014 C 
ENDROOT
BRANCH   7  13
ATOM     13  C   UNL d   1      -4.386   0.273   6.429  0.00  0.00     0.009 C 
BRANCH  13  14
ATOM     14  C   UNL d   1      -4.341   0.363   7.956  0.00  0.00     0.033 C 
BRANCH  14  15
ATOM     15  C   UNL d   1      -2.917   0.081   8.442  0.00  0.00     0.134 C 
ATOM     16  O   UNL d   1      -2.027   1.133   7.974  0.00  0.00    -0.316 OA
ATOM     17  C   UNL d   1      -0.766   1.086   8.452  0.00  0.00     0.261 C 
ATOM     18  C   UNL d   1      -0.575   0.962   9.948  0.00  0.00     0.142 C 
ATOM     19  O   UNL d   1       0.184   1.140   7.707  0.00  0.00    -0.265 OA
ATOM     20  C   UNL d   1      -1.461  -0.182  10.456  0.00  0.00     0.130 C 
ATOM     21  C   UNL d   1      -2.897   0.048   9.973  0.00  0.00     0.065 C 
BRANCH  20  22
ATOM     22  O   UNL d   1      -1.436  -0.208  11.884  0.00  0.00    -0.395 OA
ATOM     23  H   UNL d   1      -0.556  -0.350  12.260  0.00  0.00     0.210 HD
ENDBRANCH  20  22
ENDBRANCH  14  15
ENDBRANCH  13  14
ENDBRANCH   7  13
BRANCH   1  24
ATOM     24  O   UNL d   1      -4.208   0.741   2.653  0.00  0.00    -0.315 OA
BRANCH  24  25
ATOM     25  C   UNL d   1      -2.923   1.002   2.364  0.00  0.00     0.267 C 
ATOM     26  O   UNL d   1      -2.291   1.764   3.057  0.00  0.00    -0.264 OA
BRANCH  25  27
ATOM     27  C   UNL d   1      -2.269   0.344   1.176  0.00  0.00     0.040 C 
ATOM     28  C   UNL d   1      -3.021   0.732  -0.099  0.00  0.00     0.025 C 
ATOM     29  C   UNL d   1      -2.309  -1.176   1.349  0.00  0.00     0.025 C 
BRANCH  27  30
ATOM     30  C   UNL d   1      -0.815   0.808   1.072  0.00  0.00     0.014 C 
ATOM     31  C   UNL d   1      -0.152   0.140  -0.134  0.00  0.00     0.006 C 
ENDBRANCH  27  30
ENDBRANCH  25  27
ENDBRANCH  24  25
ENDBRANCH   1  24
TORSDOF 8
