REMARK  5 active torsions:
REMARK  status: ('A' for Active; 'I' for Inactive)
REMARK    1  A    between atoms: C_3  and  O_25 
REMARK    2  A    between atoms: C_9  and  O_24 
REMARK    3  A    between atoms: C_13  and  C_14 
REMARK    4  A    between atoms: C_13  and  N_29 
REMARK    5  A    between atoms: C_20  and  O_23 
ROOT
ATOM      1  C   UNL d   1      -1.535   3.715   2.353  0.00  0.00     0.011 C 
ATOM      2  C   UNL d   1      -2.042   4.990   2.137  0.00  0.00     0.040 C 
ATOM      3  C   UNL d   1      -2.170   5.567   0.872  0.00  0.00     0.099 C 
ATOM      4  C   UNL d   1      -1.708   4.827  -0.210  0.00  0.00     0.110 C 
ATOM      5  C   UNL d   1      -1.083   3.605   0.075  0.00  0.00    -0.001 C 
ATOM      6  C   UNL d   1      -1.087   2.966   1.287  0.00  0.00    -0.046 C 
ATOM      7  C   UNL d   1      -0.724   1.533   1.272  0.00  0.00     0.075 C 
ATOM      8  C   UNL d   1      -0.013   1.086   0.008  0.00  0.00     0.227 C 
ATOM      9  C   UNL d   1      -0.616   1.548  -1.310  0.00  0.00     0.101 C 
ATOM     10  C   UNL d   1      -0.589   3.076  -1.241  0.00  0.00     0.054 C 
ATOM     11  C   UNL d   1       0.837   3.525  -1.445  0.00  0.00     0.048 C 
ATOM     12  C   UNL d   1       1.602   2.977  -0.219  0.00  0.00     0.236 C 
ATOM     13  C   UNL d   1      -1.743   3.669  -2.038  0.00  0.00     0.174 C 
ATOM     14  O   UNL d   1      -1.760   5.003  -1.578  0.00  0.00    -0.339 OA
ATOM     15  C   UNL d   1      -1.856   3.040  -3.373  0.00  0.00     0.148 C 
ATOM     16  C   UNL d   1      -2.347   1.591  -3.115  0.00  0.00     0.037 C 
ATOM     17  C   UNL d   1      -2.028   1.135  -1.677  0.00  0.00     0.043 C 
ATOM     18  N   UNL d   1       1.433   1.506  -0.038  0.00  0.00    -0.063 N 
ATOM     19  H   UNL d   1       1.877   1.033  -0.835  0.00  0.00     0.280 HD
ENDROOT
BRANCH  18  20
ATOM     20  C   UNL d   1       2.107   1.086   1.192  0.00  0.00     0.240 C 
BRANCH  20  21
ATOM     21  C   UNL d   1       3.602   1.368   1.030  0.00  0.00     0.011 C 
ATOM     22  C   UNL d   1       4.436   0.995   2.267  0.00  0.00     0.006 C 
ATOM     23  C   UNL d   1       5.501   0.466   1.292  0.00  0.00     0.001 C 
ATOM     24  C   UNL d   1       4.360   0.260   0.279  0.00  0.00     0.006 C 
ENDBRANCH  20  21
ENDBRANCH  18  20
BRANCH   9  25
ATOM     25  O   UNL d   1       0.251   1.137  -2.370  0.00  0.00    -0.386 OA
ATOM     26  H   UNL d   1       0.380   0.180  -2.423  0.00  0.00     0.210 HD
ENDBRANCH   9  25
BRANCH  15  27
ATOM     27  O   UNL d   1      -0.582   3.024  -4.020  0.00  0.00    -0.393 OA
ATOM     28  H   UNL d   1      -0.593   2.623  -4.900  0.00  0.00     0.210 HD
ENDBRANCH  15  27
BRANCH   3  29
ATOM     29  O   UNL d   1      -2.722   6.799   0.706  0.00  0.00    -0.358 OA
ATOM     30  H   UNL d   1      -3.679   6.786   0.570  0.00  0.00     0.217 HD
ENDBRANCH   3  29
TORSDOF 5
