REMARK  21 active torsions:
REMARK  status: ('A' for Active; 'I' for Inactive)
REMARK    1  A    between atoms: C2_1  and  C1_19 
REMARK    2  A    between atoms: C2_1  and  C3_2 
REMARK    3  A    between atoms: C3_2  and  C4_3 
REMARK    4  A    between atoms: C4_3  and  C5_4 
REMARK    5  A    between atoms: C5_4  and  C6_5 
REMARK    6  A    between atoms: C6_5  and  C7_6 
REMARK    7  A    between atoms: C7_6  and  C8_7 
REMARK    8  A    between atoms: C8_7  and  C9_8 
REMARK    9  A    between atoms: C10_9  and  C11_10 
REMARK   10  A    between atoms: C11_10  and  C12_11 
REMARK   11  A    between atoms: C12_11  and  C13_12 
REMARK   12  A    between atoms: C13_12  and  C14_13 
REMARK   13  A    between atoms: C14_13  and  C15_14 
REMARK   14  A    between atoms: C15_14  and  C16_15 
REMARK   15  A    between atoms: C16_15  and  C17_16 
REMARK   16  A    between atoms: O1_18  and  CX3_27 
REMARK   17  A    between atoms: O1_18  and  C1_19 
REMARK   18  A    between atoms: CXD_20  and  CX3_27 
REMARK   19  A    between atoms: CXD_20  and  C21_23 
REMARK   20  A    between atoms: CXD_20  and  O2_21 
REMARK   21  A    between atoms: C21_23  and  O3_24 
ROOT
HETATM    1  C5  MPG B1204      -5.681  33.773 -45.235  1.00 99.07     0.000 C 
ENDROOT
BRANCH   1   2
HETATM    2  C4  MPG B1204      -5.014  32.722 -44.357  1.00102.92     0.000 C 
BRANCH   2   3
HETATM    3  C3  MPG B1204      -5.249  32.996 -42.876  1.00106.96     0.002 C 
BRANCH   3   4
HETATM    4  C2  MPG B1204      -6.233  31.995 -42.278  1.00110.79     0.027 C 
BRANCH   4   5
HETATM    5  C1  MPG B1204      -7.339  32.712 -41.511  1.00114.36     0.178 C 
BRANCH   5   6
HETATM    6  O1  MPG B1204      -8.463  32.924 -42.368  1.00117.43    -0.319 OA
BRANCH   6   7
HETATM    7  CX3 MPG B1204      -9.571  33.769 -41.935  1.00119.76     0.289 C 
HETATM    8  O4  MPG B1204     -10.344  33.330 -41.094  1.00120.16    -0.262 OA
BRANCH   7   9
HETATM    9  CXD MPG B1204      -9.747  35.154 -42.512  1.00120.98     0.241 C 
BRANCH   9  10
HETATM   10  C21 MPG B1204     -10.022  35.083 -44.010  1.00121.37     0.206 C 
BRANCH  10  11
HETATM   11  O3  MPG B1204      -9.261  36.099 -44.673  1.00121.51    -0.398 OA
ATOM     12  H3  MPG B1204      -9.432  36.055 -45.606  1.00  0.00     0.209 HD
ENDBRANCH  10  11
ENDBRANCH   9  10
BRANCH   9  13
HETATM   13  O2  MPG B1204     -10.815  35.863 -41.866  1.00121.45    -0.383 OA
ATOM     14  H2  MPG B1204     -10.926  36.734 -42.229  1.00  0.00     0.210 HD
ENDBRANCH   9  13
ENDBRANCH   7   9
ENDBRANCH   6   7
ENDBRANCH   5   6
ENDBRANCH   4   5
ENDBRANCH   3   4
ENDBRANCH   2   3
ENDBRANCH   1   2
BRANCH   1  15
HETATM   15  C6  MPG B1204      -4.925  33.939 -46.546  1.00 95.99     0.000 C 
BRANCH  15  16
HETATM   16  C7  MPG B1204      -5.713  33.358 -47.712  1.00 93.53     0.004 C 
BRANCH  16  17
HETATM   17  C8  MPG B1204      -4.981  33.562 -49.034  1.00 91.25     0.027 C 
BRANCH  17  18
HETATM   18  C9  MPG B1204      -5.025  32.276 -49.835  1.00 89.12    -0.031 C 
HETATM   19  C10 MPG B1204      -5.059  32.204 -51.171  1.00 87.22    -0.031 C 
BRANCH  19  20
HETATM   20  C11 MPG B1204      -5.064  33.404 -52.094  1.00 86.06     0.027 C 
BRANCH  20  21
HETATM   21  C12 MPG B1204      -4.069  33.176 -53.224  1.00 85.19     0.004 C 
BRANCH  21  22
HETATM   22  C13 MPG B1204      -4.481  33.947 -54.472  1.00 84.12     0.000 C 
BRANCH  22  23
HETATM   23  C14 MPG B1204      -3.320  34.044 -55.455  1.00 83.43     0.000 C 
BRANCH  23  24
HETATM   24  C15 MPG B1204      -3.718  33.508 -56.826  1.00 83.00     0.000 C 
BRANCH  24  25
HETATM   25  C16 MPG B1204      -2.916  34.182 -57.934  1.00 82.69    -0.000 C 
BRANCH  25  26
HETATM   26  C17 MPG B1204      -2.159  33.159 -58.774  1.00 82.23    -0.005 C 
HETATM   27  C18 MPG B1204      -1.376  33.828 -59.884  1.00 81.80     0.005 C 
ENDBRANCH  25  26
ENDBRANCH  24  25
ENDBRANCH  23  24
ENDBRANCH  22  23
ENDBRANCH  21  22
ENDBRANCH  20  21
ENDBRANCH  19  20
ENDBRANCH  17  18
ENDBRANCH  16  17
ENDBRANCH  15  16
ENDBRANCH   1  15
TORSDOF 21
