REMARK  7 active torsions:
REMARK  status: ('A' for Active; 'I' for Inactive)
REMARK    1  A    between atoms: C16_2  and  C18_22 
REMARK       I    between atoms: C16_2  and  N14_3 
REMARK    2  A    between atoms: N14_3  and  C11_5 
REMARK    3  A    between atoms: C8_7  and  N51_8 
REMARK    4  A    between atoms: C5_17  and  C2_18 
REMARK    5  A    between atoms: C21_27  and  N31_29 
REMARK    6  A    between atoms: N31_29  and  C33_31 
REMARK    7  A    between atoms: C35_36  and  C41_39 
ROOT
HETATM    1  C18 NIL B 600      24.827  13.127  87.753  1.00 43.73     0.034 A 
HETATM    2  C25 NIL B 600      25.612  12.901  88.903  1.00 44.45     0.018 A 
HETATM    3  C23 NIL B 600      26.928  13.388  89.039  1.00 44.42     0.010 A 
HETATM    4  C22 NIL B 600      27.557  14.053  87.975  1.00 45.58    -0.035 A 
HETATM    5  C27 NIL B 600      28.996  14.554  88.161  1.00 45.77     0.050 C 
HETATM    6  C21 NIL B 600      26.835  14.221  86.756  1.00 45.05     0.056 A 
HETATM    7  C19 NIL B 600      25.492  13.754  86.667  1.00 44.90     0.047 A 
ENDROOT
BRANCH   1   8
HETATM    8  C16 NIL B 600      23.483  12.482  87.551  1.00 45.00     0.256 C 
HETATM    9  O17 NIL B 600      22.993  12.533  86.430  1.00 45.12    -0.267 OA
HETATM   10  N14 NIL B 600      23.020  11.635  88.506  1.00 44.82    -0.323 N 
ATOM     11  H14 NIL B 600      23.556  11.549  89.370  1.00  0.00     0.169 HD
BRANCH  10  12
HETATM   12  C11 NIL B 600      21.847  10.869  88.378  1.00 45.62     0.037 A 
HETATM   13  C9  NIL B 600      21.227  10.358  89.519  1.00 44.63     0.059 A 
HETATM   14  C8  NIL B 600      20.068   9.570  89.443  1.00 47.73     0.042 A 
HETATM   15  C6  NIL B 600      19.586   9.245  88.159  1.00 46.31     0.046 A 
HETATM   16  C5  NIL B 600      20.216   9.687  86.979  1.00 45.18     0.052 A 
HETATM   17  C12 NIL B 600      21.343  10.478  87.106  1.00 44.56     0.046 A 
BRANCH  14  18
HETATM   18  N51 NIL B 600      19.419   9.125  90.626  1.00 49.43    -0.317 N 
HETATM   19  C56 NIL B 600      19.991   8.832  91.861  1.00 54.63     0.122 A 
HETATM   20  C55 NIL B 600      18.996   8.443  92.717  1.00 55.29     0.022 A 
HETATM   21  C58 NIL B 600      19.200   8.056  94.178  1.00 55.64     0.069 C 
HETATM   22  N54 NIL B 600      17.780   8.470  92.049  1.00 53.98    -0.354 N 
HETATM   23  C52 NIL B 600      18.090   8.883  90.817  1.00 55.04     0.188 A 
ATOM     24  H54 NIL B 600      16.859   8.229  92.415  1.00  0.00     0.166 HD
ENDBRANCH  14  18
BRANCH  16  25
HETATM   25  C2  NIL B 600      19.682   9.303  85.586  1.00 46.48     0.417 C 
HETATM   26  F1  NIL B 600      18.925  10.269  85.024  1.00 46.84    -0.166 F 
HETATM   27  F3  NIL B 600      18.941   8.149  85.649  1.00 45.86    -0.166 F 
HETATM   28  F4  NIL B 600      20.670   8.987  84.672  1.00 51.03    -0.166 F 
ENDBRANCH  16  25
ENDBRANCH  10  12
ENDBRANCH   1   8
BRANCH   6  29
HETATM   29  N31 NIL B 600      27.360  15.076  85.761  1.00 44.25    -0.191 N 
ATOM     30  H31 NIL B 600      28.078  14.760  85.108  1.00  0.00     0.184 HD
BRANCH  29  31
HETATM   31  C33 NIL B 600      26.842  16.389  85.715  1.00 43.07     0.683 A 
HETATM   32  N40 NIL B 600      25.988  16.984  86.540  1.00 44.57    -0.202 N 
HETATM   33  C38 NIL B 600      25.575  18.244  86.239  1.00 40.79     0.108 A 
ATOM     34  H40 NIL B 600      25.651  16.508  87.377  1.00  0.00     0.183 HD
HETATM   35  C36 NIL B 600      25.998  18.888  85.143  1.00 41.80     0.048 A 
HETATM   36  C35 NIL B 600      26.853  18.235  84.319  1.00 42.09     0.062 A 
HETATM   37  N34 NIL B 600      27.285  17.010  84.613  1.00 38.65    -0.191 N 
ATOM     38  H34 NIL B 600      27.953  16.544  83.999  1.00  0.00     0.184 HD
BRANCH  36  39
HETATM   39  C41 NIL B 600      27.447  18.838  83.108  1.00 43.25     0.007 A 
HETATM   40  C49 NIL B 600      27.193  20.193  82.787  1.00 42.87     0.016 A 
HETATM   41  C47 NIL B 600      27.809  20.751  81.672  1.00 44.60     0.018 A 
HETATM   42  C45 NIL B 600      28.675  19.955  80.911  1.00 44.07     0.087 A 
HETATM   43  N44 NIL B 600      28.942  18.663  81.214  1.00 46.20    -0.374 N 
HETATM   44  C42 NIL B 600      28.340  18.115  82.295  1.00 42.87     0.101 A 
ATOM     45  H44 NIL B 600      29.583  18.115  80.640  1.00  0.00     0.164 HD
ENDBRANCH  36  39
ENDBRANCH  29  31
ENDBRANCH   6  29
TORSDOF 7
