REMARK  7 active torsions:
REMARK  status: ('A' for Active; 'I' for Inactive)
REMARK    1  A    between atoms: C16_2  and  C18_22 
REMARK       I    between atoms: C16_2  and  N14_3 
REMARK    2  A    between atoms: N14_3  and  C11_5 
REMARK    3  A    between atoms: C8_7  and  N51_8 
REMARK    4  A    between atoms: C5_17  and  C2_18 
REMARK    5  A    between atoms: C21_27  and  N31_29 
REMARK    6  A    between atoms: N31_29  and  C33_31 
REMARK    7  A    between atoms: C35_36  and  C41_39 
ROOT
HETATM    1  C18 NIL D 600      18.947  38.906  15.382  1.00 61.03     0.034 A 
HETATM    2  C25 NIL D 600      18.133  39.263  16.483  1.00 62.75     0.018 A 
HETATM    3  C23 NIL D 600      16.945  38.550  16.791  1.00 62.51     0.010 A 
HETATM    4  C22 NIL D 600      16.506  37.483  16.002  1.00 62.29    -0.035 A 
HETATM    5  C27 NIL D 600      15.221  36.743  16.370  1.00 62.41     0.050 C 
HETATM    6  C21 NIL D 600      17.244  37.183  14.835  1.00 62.16     0.056 A 
HETATM    7  C19 NIL D 600      18.446  37.872  14.575  1.00 61.33     0.047 A 
ENDROOT
BRANCH   1   8
HETATM    8  C16 NIL D 600      20.183  39.648  14.941  1.00 60.66     0.256 C 
HETATM    9  O17 NIL D 600      20.895  39.174  14.037  1.00 56.16    -0.267 OA
HETATM   10  N14 NIL D 600      20.316  40.883  15.501  1.00 55.48    -0.323 N 
ATOM     11  H14 NIL D 600      19.597  41.176  16.162  1.00  0.00     0.169 HD
BRANCH  10  12
HETATM   12  C11 NIL D 600      21.354  41.782  15.246  1.00 54.32     0.037 A 
HETATM   13  C9  NIL D 600      21.654  42.788  16.199  1.00 52.68     0.059 A 
HETATM   14  C8  NIL D 600      22.712  43.727  15.989  1.00 53.64     0.042 A 
HETATM   15  C6  NIL D 600      23.439  43.607  14.793  1.00 53.18     0.046 A 
HETATM   16  C5  NIL D 600      23.126  42.630  13.840  1.00 54.35     0.052 A 
HETATM   17  C12 NIL D 600      22.069  41.732  14.043  1.00 52.00     0.046 A 
BRANCH  14  18
HETATM   18  N51 NIL D 600      23.047  44.712  16.947  1.00 53.27    -0.317 N 
HETATM   19  C56 NIL D 600      22.198  45.294  17.883  1.00 51.29     0.122 A 
HETATM   20  C55 NIL D 600      22.929  46.165  18.654  1.00 53.93     0.022 A 
HETATM   21  C58 NIL D 600      22.383  47.024  19.813  1.00 55.84     0.069 C 
HETATM   22  N54 NIL D 600      24.248  46.147  18.227  1.00 54.46    -0.354 N 
HETATM   23  C52 NIL D 600      24.268  45.260  17.201  1.00 55.57     0.188 A 
ATOM     24  H54 NIL D 600      25.031  46.683  18.602  1.00  0.00     0.166 HD
ENDBRANCH  14  18
BRANCH  16  25
HETATM   25  C2  NIL D 600      23.893  42.538  12.551  1.00 54.97     0.417 C 
HETATM   26  F4  NIL D 600      23.006  42.506  11.496  1.00 58.82    -0.166 F 
HETATM   27  F3  NIL D 600      24.687  43.642  12.379  1.00 55.09    -0.166 F 
HETATM   28  F1  NIL D 600      24.609  41.378  12.494  1.00 55.28    -0.166 F 
ENDBRANCH  16  25
ENDBRANCH  10  12
ENDBRANCH   1   8
BRANCH   6  29
HETATM   29  N31 NIL D 600      16.944  35.999  14.152  1.00 61.73    -0.191 N 
ATOM     30  H31 NIL D 600      16.310  35.950  13.354  1.00  0.00     0.184 HD
BRANCH  29  31
HETATM   31  C33 NIL D 600      17.615  34.881  14.689  1.00 60.90     0.683 A 
HETATM   32  N34 NIL D 600      17.425  33.859  13.869  1.00 61.69    -0.191 N 
HETATM   33  C35 NIL D 600      17.962  32.650  14.098  1.00 63.01     0.062 A 
ATOM     34  H34 NIL D 600      16.852  33.995  13.036  1.00  0.00     0.184 HD
HETATM   35  C36 NIL D 600      18.744  32.442  15.182  1.00 61.82     0.048 A 
HETATM   36  C38 NIL D 600      18.934  33.508  16.013  1.00 61.54     0.108 A 
HETATM   37  N40 NIL D 600      18.380  34.747  15.778  1.00 61.53    -0.202 N 
ATOM     38  H40 NIL D 600      18.546  35.531  16.409  1.00  0.00     0.183 HD
BRANCH  33  39
HETATM   39  C41 NIL D 600      17.609  31.644  13.067  1.00 63.13     0.007 A 
HETATM   40  C42 NIL D 600      16.921  32.038  11.898  1.00 63.82     0.101 A 
HETATM   41  N44 NIL D 600      16.573  31.176  10.924  1.00 64.94    -0.374 N 
HETATM   42  C45 NIL D 600      16.892  29.876  11.074  1.00 63.96     0.087 A 
ATOM     43  H44 NIL D 600      16.079  31.500  10.092  1.00  0.00     0.164 HD
HETATM   44  C47 NIL D 600      17.558  29.378  12.193  1.00 64.23     0.018 A 
HETATM   45  C49 NIL D 600      17.922  30.269  13.220  1.00 63.90     0.016 A 
ENDBRANCH  33  39
ENDBRANCH  29  31
ENDBRANCH   6  29
TORSDOF 7
