REMARK  3 active torsions:
REMARK  status: ('A' for Active; 'I' for Inactive)
REMARK    1  A    between atoms: N4_4  and  C7_7 
REMARK    2  A    between atoms: C7_7  and  C8_8 
REMARK    3  A    between atoms: C8_8  and  S_9 
ROOT
HETATM    1  O1  MES A1002     -24.997 153.953  60.196  1.00186.90    -0.388 OA
HETATM    2  C2  MES A1002     -24.077 153.066  60.856  1.00144.37     0.198 C 
HETATM    3  C3  MES A1002     -24.262 153.189  62.358  1.00154.90     0.298 C 
HETATM    4  N4  MES A1002     -24.024 154.571  62.795  1.00148.59     0.093 N 
HETATM    5  C5  MES A1002     -24.955 155.460  62.086  1.00157.88     0.298 C 
HETATM    6  C6  MES A1002     -24.766 155.323  60.584  1.00187.77     0.198 C 
ENDROOT
BRANCH   4   7
HETATM    7  C7  MES A1002     -24.225 154.663  64.249  1.00125.94     0.290 C 
BRANCH   7   8
HETATM    8  C8  MES A1002     -24.177 156.113  64.737  1.00 93.36     0.195 C 
BRANCH   8   9
HETATM    9  S   MES A1002     -24.033 156.119  66.560  1.00170.95     0.103 S 
HETATM   10  O1S MES A1002     -22.563 155.962  66.956  1.00145.71    -0.595 OA
HETATM   11  O2S MES A1002     -24.566 157.446  67.106  1.00245.29    -0.595 OA
HETATM   12  O3S MES A1002     -24.851 154.961  67.140  1.00133.30    -0.595 OA
ENDBRANCH   8   9
ENDBRANCH   7   8
ENDBRANCH   4   7
TORSDOF 3
