REMARK  13 active torsions:
REMARK  status: ('A' for Active; 'I' for Inactive)
REMARK    1  A    between atoms: C13_3  and  N_18 
REMARK    2  A    between atoms: C13_3  and  C4_37 
REMARK    3  A    between atoms: C20_9  and  O6_63 
REMARK       I    between atoms: C24_12  and  N2_49 
REMARK    4  A    between atoms: C24_12  and  C21_25 
REMARK    5  A    between atoms: C25_13  and  S_64 
REMARK    6  A    between atoms: C28_15  and  N3_51 
REMARK    7  A    between atoms: C31_17  and  C32_29 
REMARK    8  A    between atoms: C31_17  and  N3_51 
REMARK    9  A    between atoms: C18_23  and  N1_48 
REMARK   10  A    between atoms: C27_26  and  N4_53 
REMARK   11  A    between atoms: C37_34  and  O6_63 
REMARK   12  A    between atoms: C5_43  and  C7_45 
REMARK   13  A    between atoms: N2_49  and  S_64 
ROOT
HETATM    1  C19 LBM A 301     -10.824  11.042   2.147  1.00 40.09     0.067 A 
HETATM    2  C20 LBM A 301     -11.260   9.773   2.470  1.00 41.32     0.094 A 
HETATM    3  C22 LBM A 301     -10.268   9.965   4.630  1.00 41.08     0.022 A 
HETATM    4  C23 LBM A 301      -9.829  11.240   4.315  1.00 50.83     0.030 A 
HETATM    5  C18 LBM A 301     -10.101  11.799   3.069  1.00 42.36     0.033 A 
HETATM    6  C21 LBM A 301     -10.993   9.203   3.715  1.00 46.53     0.067 A 
ENDROOT
BRANCH   6   7
HETATM    7  C24 LBM A 301     -11.428   7.831   4.132  1.00 46.23     0.268 C 
HETATM    8  O   LBM A 301     -12.515   7.368   3.802  1.00 43.54    -0.267 OA
HETATM    9  N2  LBM A 301     -10.525   7.082   4.871  1.00 37.78    -0.246 N 
ATOM     10  H2  LBM A 301      -9.723   7.560   5.281  1.00  0.00     0.182 HD
BRANCH   9  11
HETATM   11  S   LBM A 301     -10.680   5.463   5.121  1.00 40.44     0.265 S 
HETATM   12  O1  LBM A 301     -12.050   5.204   5.446  1.00 37.40    -0.200 OA
HETATM   13  O2  LBM A 301      -9.652   5.088   6.041  1.00 38.78    -0.200 OA
BRANCH  11  14
HETATM   14  C25 LBM A 301     -10.330   4.706   3.566  1.00 36.21     0.082 A 
HETATM   15  C30 LBM A 301     -11.357   4.454   2.675  1.00 41.77     0.028 A 
HETATM   16  C29 LBM A 301     -11.061   3.921   1.432  1.00 37.04     0.033 A 
HETATM   17  C28 LBM A 301      -9.754   3.626   1.047  1.00 34.87     0.061 A 
HETATM   18  C27 LBM A 301      -8.734   3.889   2.002  1.00 36.77     0.130 A 
HETATM   19  C26 LBM A 301      -9.015   4.417   3.245  1.00 34.83     0.063 A 
BRANCH  17  20
HETATM   20  N3  LBM A 301      -9.486   3.120  -0.203  1.00 44.98    -0.388 N 
ATOM     21  H3  LBM A 301      -8.512   2.930  -0.440  1.00  0.00     0.159 HD
BRANCH  20  22
HETATM   22  C31 LBM A 301     -10.496   2.838  -1.209  1.00 46.03     0.124 C 
BRANCH  22  23
HETATM   23  C32 LBM A 301     -10.033   1.711  -2.115  1.00 50.42     0.007 C 
HETATM   24  C33 LBM A 301     -11.075   1.395  -3.182  1.00 51.96     0.032 C 
HETATM   25  C34 LBM A 301     -10.547   0.344  -4.124  1.00 53.45     0.168 C 
HETATM   26  O3  LBM A 301      -9.339   0.770  -4.745  1.00 55.18    -0.391 OA
HETATM   27  C35 LBM A 301      -8.328   0.968  -3.762  1.00 55.14     0.168 C 
HETATM   28  C36 LBM A 301      -8.714   2.059  -2.795  1.00 49.58     0.032 C 
ENDBRANCH  22  23
ENDBRANCH  20  22
ENDBRANCH  17  20
BRANCH  18  29
HETATM   29  N4  LBM A 301      -7.323   3.628   1.722  1.00 44.83    -0.113 N 
HETATM   30  O4  LBM A 301      -7.001   3.341   0.579  1.00 42.40    -0.532 OA
HETATM   31  O5  LBM A 301      -6.525   3.707   2.645  1.00 45.49    -0.532 OA
ENDBRANCH  18  29
ENDBRANCH  11  14
ENDBRANCH   9  11
ENDBRANCH   6   7
BRANCH   2  32
HETATM   32  O6  LBM A 301     -12.001   9.040   1.551  1.00 44.86    -0.308 OA
BRANCH  32  33
HETATM   33  C37 LBM A 301     -11.320   8.264   0.613  1.00 33.42     0.092 A 
HETATM   34  C38 LBM A 301     -11.992   7.754  -0.487  1.00 32.71     0.127 A 
HETATM   35  N5  LBM A 301     -11.402   6.987  -1.414  1.00 40.25    -0.349 N 
HETATM   36  C39 LBM A 301     -10.095   6.718  -1.243  1.00 26.20     0.115 A 
ATOM     37  H5  LBM A 301     -11.921   6.623  -2.213  1.00  0.00     0.167 HD
HETATM   38  N6  LBM A 301      -9.291   5.955  -2.035  1.00 30.22    -0.352 N 
HETATM   39  C40 LBM A 301      -9.318   7.198  -0.152  1.00 27.88     0.012 A 
HETATM   40  C43 LBM A 301      -8.030   5.934  -1.484  1.00 38.57     0.090 A 
ATOM     41  H6  LBM A 301      -9.575   5.480  -2.891  1.00  0.00     0.166 HD
HETATM   42  C42 LBM A 301      -8.002   6.673  -0.345  1.00 38.56     0.032 A 
HETATM   43  C41 LBM A 301      -9.973   7.991   0.789  1.00 28.02     0.054 A 
ENDBRANCH  32  33
ENDBRANCH   2  32
BRANCH   5  44
HETATM   44  N1  LBM A 301      -9.677  13.083   2.754  1.00 45.43    -0.377 N 
HETATM   45  C16 LBM A 301     -10.668  14.003   2.195  1.00 45.12     0.153 C 
HETATM   46  C17 LBM A 301      -9.979  15.112   1.432  1.00 43.83     0.292 C 
HETATM   47  N   LBM A 301      -9.055  15.845   2.303  1.00 46.79     0.095 N 
HETATM   48  C14 LBM A 301      -8.052  14.910   2.832  1.00 41.71     0.292 C 
HETATM   49  C15 LBM A 301      -8.719  13.787   3.608  1.00 43.43     0.153 C 
BRANCH  47  50
HETATM   50  C13 LBM A 301      -8.424  16.944   1.572  1.00 46.50     0.307 C 
BRANCH  50  51
HETATM   51  C4  LBM A 301      -7.700  17.871   2.506  1.00 39.87    -0.045 C 
HETATM   52  C5  LBM A 301      -6.499  18.356   2.122  1.00 39.48    -0.043 C 
HETATM   53  C6  LBM A 301      -5.856  19.525   2.801  1.00 43.89     0.048 C 
HETATM   54  C1  LBM A 301      -6.346  19.801   4.225  1.00 46.46    -0.043 C 
HETATM   55  C2  LBM A 301      -7.871  19.646   4.245  1.00 50.26     0.013 C 
HETATM   56  C44 LBM A 301      -5.707  18.805   5.192  1.00 44.83     0.015 C 
HETATM   57  C   LBM A 301      -5.958  21.221   4.637  1.00 44.26     0.015 C 
HETATM   58  C3  LBM A 301      -8.348  18.264   3.805  1.00 41.51     0.037 C 
BRANCH  52  59
HETATM   59  C7  LBM A 301      -5.744  17.801   0.968  1.00 36.59    -0.030 A 
HETATM   60  C8  LBM A 301      -4.968  16.662   1.135  1.00 28.55     0.012 A 
HETATM   61  C9  LBM A 301      -4.242  16.164   0.068  1.00 30.38     0.007 A 
HETATM   62  C10 LBM A 301      -4.286  16.795  -1.158  1.00 35.21    -0.062 A 
HETATM   63  C11 LBM A 301      -5.065  17.922  -1.326  1.00 36.09     0.007 A 
HETATM   64  CL  LBM A 301      -3.349  16.178  -2.489  1.00 51.14     0.048 C 
HETATM   65  C12 LBM A 301      -5.795  18.427  -0.267  1.00 38.45     0.012 A 
ENDBRANCH  52  59
ENDBRANCH  50  51
ENDBRANCH  47  50
ENDBRANCH   5  44
TORSDOF 13
