REMARK  9 active torsions:
REMARK  status: ('A' for Active; 'I' for Inactive)
REMARK    1  A    between atoms: C1_1  and  C41_47 
REMARK    2  A    between atoms: C4_4  and  C11_11 
REMARK    3  A    between atoms: C5_5  and  C7_7 
REMARK    4  A    between atoms: C11_11  and  N12_12 
REMARK    5  A    between atoms: C15_15  and  N17_17 
REMARK    6  A    between atoms: C24_26  and  C26_28 
REMARK    7  A    between atoms: C28_31  and  N32_36 
REMARK    8  A    between atoms: N32_36  and  C38_43 
REMARK    9  A    between atoms: C34_39  and  N40_45 
REMARK       I    between atoms: N40_45  and  C41_47 
ROOT
HETATM    1  C33 406 A1001      15.700  53.849  13.382  1.00 37.70     0.060 A 
HETATM    2  C34 406 A1001      16.638  52.771  13.625  1.00 37.97     0.037 A 
HETATM    3  C35 406 A1001      17.725  52.587  12.739  1.00 37.80     0.030 A 
HETATM    4  C36 406 A1001      17.895  53.459  11.612  1.00 37.87     0.011 A 
HETATM    5  C37 406 A1001      16.964  54.520  11.380  1.00 38.20    -0.035 A 
HETATM    6  C38 406 A1001      15.875  54.697  12.275  1.00 38.49     0.057 A 
HETATM    7  C39 406 A1001      17.237  55.392  10.156  1.00 38.08     0.050 C 
ENDROOT
BRANCH   2   8
HETATM    8  N40 406 A1001      16.533  51.861  14.735  1.00 37.15    -0.323 N 
HETATM    9  C41 406 A1001      15.660  51.753  15.737  1.00 37.79     0.256 C 
HETATM   10  O42 406 A1001      14.855  52.655  15.971  1.00 38.78    -0.267 OA
ATOM     11  H40 406 A1001      17.273  51.160  14.760  1.00  0.00     0.169 HD
BRANCH   9  12
HETATM   12  C1  406 A1001      15.655  50.546  16.618  1.00 38.65     0.033 A 
HETATM   13  C2  406 A1001      16.772  49.680  16.841  1.00 37.93     0.017 A 
HETATM   14  C3  406 A1001      16.658  48.568  17.703  1.00 37.95     0.011 A 
HETATM   15  C4  406 A1001      15.408  48.274  18.395  1.00 38.26    -0.015 A 
HETATM   16  C5  406 A1001      14.247  49.167  18.171  1.00 37.89     0.056 A 
HETATM   17  C6  406 A1001      14.422  50.263  17.290  1.00 37.86     0.034 A 
BRANCH  15  18
HETATM   18  C11 406 A1001      15.420  47.020  19.323  1.00 37.72     0.311 C 
BRANCH  18  19
HETATM   19  N12 406 A1001      16.682  46.627  20.007  1.00 39.41     0.094 N 
HETATM   20  C13 406 A1001      16.677  45.304  20.662  1.00 38.92     0.275 C 
HETATM   21  C14 406 A1001      17.182  45.567  22.085  1.00 38.65     0.068 C 
HETATM   22  C15 406 A1001      18.092  46.795  21.839  1.00 38.81     0.252 C 
HETATM   23  C16 406 A1001      17.145  47.624  21.009  1.00 38.57     0.308 C 
BRANCH  22  24
HETATM   24  N17 406 A1001      18.628  47.508  23.083  1.00 39.14     0.086 N 
HETATM   25  C18 406 A1001      19.541  46.725  23.942  1.00 39.06     0.310 C 
HETATM   26  C19 406 A1001      19.254  48.823  22.689  1.00 38.52     0.310 C 
ENDBRANCH  22  24
ENDBRANCH  18  19
ENDBRANCH  15  18
BRANCH  16  27
HETATM   27  C7  406 A1001      12.832  49.003  18.836  1.00 38.38     0.418 C 
HETATM   28  F9  406 A1001      12.319  47.772  18.583  1.00 37.72    -0.166 F 
HETATM   29  F10 406 A1001      11.942  49.965  18.430  1.00 39.32    -0.166 F 
HETATM   30  F8  406 A1001      12.946  49.165  20.183  1.00 39.18    -0.166 F 
ENDBRANCH  16  27
ENDBRANCH   9  12
ENDBRANCH   2   8
BRANCH   6  31
HETATM   31  N32 406 A1001      14.948  55.725  12.093  1.00 38.25    -0.191 N 
ATOM     32  H32 406 A1001      14.118  55.486  11.550  1.00  0.00     0.184 HD
BRANCH  31  33
HETATM   33  C28 406 A1001      15.014  57.032  12.558  1.00 38.40     0.682 A 
HETATM   34  N27 406 A1001      13.994  57.803  12.215  1.00 38.34    -0.194 N 
HETATM   35  C26 406 A1001      13.947  59.119  12.615  1.00 38.69     0.044 A 
ATOM     36  H27 406 A1001      13.237  57.419  11.650  1.00  0.00     0.184 HD
HETATM   37  C31 406 A1001      15.070  59.649  13.425  1.00 38.28     0.103 A 
HETATM   38  C30 406 A1001      16.106  58.723  13.721  1.00 38.37     0.085 A 
HETATM   39  N29 406 A1001      16.061  57.422  13.272  1.00 38.67    -0.205 N 
ATOM     40  H29 406 A1001      16.818  56.772  13.484  1.00  0.00     0.183 HD
BRANCH  35  41
HETATM   41  C24 406 A1001      12.852  59.902  12.229  1.00 38.59     0.018 A 
HETATM   42  C23 406 A1001      11.745  59.364  11.404  1.00 37.81     0.103 A 
HETATM   43  N22 406 A1001      10.670  60.101  11.016  1.00 38.06    -0.361 N 
HETATM   44  C21 406 A1001      10.626  61.380  11.413  1.00 38.54     0.180 A 
ATOM     45  H22 406 A1001       9.927  59.697  10.446  1.00  0.00     0.166 HD
HETATM   46  N20 406 A1001      11.545  62.016  12.162  1.00 38.22    -0.361 N 
HETATM   47  C25 406 A1001      12.629  61.315  12.563  1.00 38.35     0.103 A 
ATOM     48  H20 406 A1001      11.428  62.996  12.419  1.00  0.00     0.166 HD
ENDBRANCH  35  41
ENDBRANCH  31  33
ENDBRANCH   6  31
TORSDOF 9
